Title

10400 atoms
9400 bonds
15800 angles
24000 dihedrals
0 impropers

7 atom types
5 bond types
4 angle types
12 dihedral types
-3.102743924 56.89725608 xlo xhi
-3.960904181 56.03909582 ylo yhi
-9.438201785 50.56179821 zlo zhi
0.0 0.0 0.0 xy xz yz

Masses

1	12.01078
2	14.00672
3	15.99943
4	1.007947
5	1.007947
6	1.007947
7	35.4532


Pair Coeffs

1	0.10884061	3.3795318
2	0.16769152	3.206876
3	0.20947353	2.99716
4	0.0157	1.9599772
5	0.016409246	2.5832257
6	1.2326e-05	0.53453923
7	0.035591	4.477657

Bond Coeffs

1 harmonic	225.97114073395	1.477375101044
2 harmonic	357.8191474159	1.094206460752
3 harmonic	215.30139056395	1.533627603844
4 harmonic	258.9527804663	1.426323519316
5 harmonic	538.350794015	0.9752301008088


Angle Coeffs

1 harmonic	124.0884341307	113.2116558678
2 harmonic	66.75631831595	109.9380527584
3 harmonic	119.8958895535	112.8736161145
4 harmonic	36.776637850755	108.3543135269


Dihedral Coeffs

1 fourier 1	0.1113575199827	3	0
2 fourier 1	0.07484583104594	3	0
3 fourier 1	0.3153839995235	2	180
4 fourier 1	0.143904881748	3	0
5 fourier 1	0.4431584714139	3	0
6 fourier 1	0.1140296769156	1	0
7 fourier 1	0.1311347012225	3	0
8 fourier 1	0.436546671918	1	0
9 fourier 1	0.2279946533057	3	0
10 fourier 1	0.3636269884643333	3	0
11 fourier 1	-0.01533770820035	3	0
12 fourier 1	0.4191503124266	2	0


Atoms

1	1	1	0.091163382	10.99054	19.386522	53.398499
2	1	2	-0.60549378	9.8580801	18.971264	52.506385
3	1	1	0.091163382	8.8401258	18.262151	53.331227
4	1	1	0.091163382	10.372353	18.030351	51.459165
5	1	1	0.090200476	9.1901386	20.163288	51.84104
6	1	1	0.1250061	10.126343	21.342785	51.455703
7	1	3	-0.58036166	11.228791	20.908833	50.645146
8	1	4	0.10271815	11.455013	18.510169	53.860621
9	1	4	0.10271815	11.762153	19.916408	52.831821
10	1	4	0.10271815	10.635812	20.042906	54.198885
11	1	4	0.10271815	8.0315411	17.874312	52.704287
12	1	4	0.10271815	8.4065807	18.939568	54.073138
13	1	4	0.10271815	9.2865139	17.409942	53.852539
14	1	4	0.10271815	10.853113	17.16253	51.920733
15	1	4	0.10271815	9.5549446	17.658194	50.83416
16	1	4	0.10271815	11.099031	18.529022	50.810661
17	1	4	0.12002882	8.4069747	20.55244	52.498689
18	1	4	0.12002882	8.6615354	19.829273	50.943093
19	1	5	0.045879088	9.5445323	22.093084	50.911794
20	1	5	0.045879088	10.50055	21.830213	52.361059
21	1	6	0.44087953	11.7968	21.645296	50.351782
22	2	1	0.091163382	39.135704	54.367347	47.705708
23	2	2	-0.60549378	40.113363	54.903369	48.705654
24	2	1	0.091163382	41.315856	55.42594	47.981658
25	2	1	0.091163382	40.531626	53.800392	49.636779
26	2	1	0.090200476	39.485903	56.06308	49.460263
27	2	1	0.1250061	38.286309	55.714622	50.383072
28	2	3	-0.58036166	38.702745	54.981027	51.544967
29	2	4	0.10271815	39.601512	53.606467	47.072167
30	2	4	0.10271815	38.282199	53.902097	48.20806
31	2	4	0.10271815	38.754311	55.16746	47.064109
32	2	4	0.10271815	42.034006	55.860314	48.683701
33	2	4	0.10271815	41.032839	56.218615	47.282476
34	2	4	0.10271815	41.811824	54.63109	47.416406
35	2	4	0.10271815	41.06535	53.010769	49.099259
36	2	4	0.10271815	41.18176	54.183607	50.429091
37	2	4	0.10271815	39.66085	53.338714	50.112052
38	2	4	0.12002882	39.142783	56.803813	48.731656
39	2	4	0.12002882	40.244875	56.584277	50.051537
40	2	5	0.045879088	37.814059	56.648283	50.703306
41	2	5	0.045879088	37.532849	55.148239	49.827375
42	2	6	0.44087953	37.986374	54.847927	52.193174
43	3	1	0.091163382	2.0284836	19.963167	8.2967973
44	3	2	-0.60549378	3.287712	20.309489	7.5582296
45	3	1	0.091163382	3.0987537	19.955695	6.1126423
46	3	1	0.091163382	4.4248965	19.496821	8.1045842
47	3	1	0.090200476	3.5850167	21.79915	7.6781029
48	3	1	0.1250061	3.7938279	22.337544	9.1279179
49	3	3	-0.58036166	4.9718934	21.809657	9.75335
50	3	4	0.10271815	1.777871	18.907397	8.1559634
51	3	4	0.10271815	2.1359262	20.150528	9.3694764
52	3	4	0.10271815	1.1842134	20.549831	7.9222041
53	3	4	0.10271815	4.0102944	20.132391	5.5337137
54	3	4	0.10271815	2.2931747	20.548012	5.6682432
55	3	4	0.10271815	2.8320876	18.899965	6.0048741
56	3	4	0.10271815	4.3024424	18.4372	7.8606665
57	3	4	0.10271815	5.3789401	19.826188	7.6819652
58	3	4	0.10271815	4.4931585	19.594036	9.1923243
59	3	4	0.12002882	2.7658415	22.366228	7.225706
60	3	4	0.12002882	4.4699192	22.053494	7.086879
61	3	5	0.045879088	3.8793984	23.42782	9.0923703
62	3	5	0.045879088	2.9158038	22.121565	9.7441274
63	3	6	0.44087953	5.759533	21.83867	9.1790003
64	4	1	0.091163382	41.325288	28.808544	2.6930475
65	4	2	-0.60549378	41.210017	27.318227	2.5298735
66	4	1	0.091163382	40.362501	27.014303	1.3261797
67	4	1	0.091163382	40.566797	26.728792	3.7508479
68	4	1	0.090200476	42.580819	26.683381	2.3171683
69	4	1	0.1250061	43.735695	27.237577	3.2030174
70	4	3	-0.58036166	43.422303	27.181926	4.5998877
71	4	4	0.10271815	40.339851	29.269524	2.8101137
72	4	4	0.10271815	41.917229	29.056156	3.5793796
73	4	4	0.10271815	41.810927	29.258487	1.821845
74	4	4	0.10271815	40.231867	25.934653	1.2054468
75	4	4	0.10271815	40.841622	27.375534	0.41116707
76	4	4	0.10271815	39.374757	27.4787	1.4035374
77	4	4	0.10271815	39.546478	27.10381	3.8757247
78	4	4	0.10271815	40.528579	25.637491	3.6809185
79	4	4	0.10271815	41.134171	26.983004	4.6512657
80	4	4	0.12002882	42.874804	26.79445	1.2690617
81	4	4	0.12002882	42.512856	25.601659	2.4673331
82	4	5	0.045879088	44.643912	26.658354	3.0108297
83	4	5	0.045879088	43.958373	28.270507	2.9188398
84	4	6	0.44087953	43.32499	26.268623	4.9277687
85	5	1	0.091163382	52.395182	13.339239	48.513584
86	5	2	-0.60549378	52.137103	14.610381	47.755547
87	5	1	0.091163382	52.715392	14.477276	46.380219
88	5	1	0.091163382	52.794309	15.760552	48.46384
89	5	1	0.090200476	50.641551	14.858762	47.628584
90	5	1	0.1250061	49.852939	14.990491	48.962555
91	5	3	-0.58036166	50.163555	16.189963	49.687014
92	5	4	0.10271815	53.466682	13.128598	48.582888
93	5	4	0.10271815	51.992984	13.398266	49.529481
94	5	4	0.10271815	51.920009	12.487612	48.017368
95	5	4	0.10271815	52.547731	15.384873	45.792475
96	5	4	0.10271815	52.25606	13.644111	45.83972
97	5	4	0.10271815	53.793559	14.294981	46.420293
98	5	4	0.10271815	53.883176	15.652605	48.464847
99	5	4	0.10271815	52.538662	16.709081	47.981944
100	5	4	0.10271815	52.462883	15.818884	49.505019
101	5	4	0.12002882	50.190454	14.03932	47.060857
102	5	4	0.12002882	50.462146	15.758258	47.031918
103	5	5	0.045879088	48.785043	14.999344	48.724203
104	5	5	0.045879088	50.033317	14.115603	49.594474
105	5	6	0.44087953	49.6241	16.28969	50.493321
106	6	1	0.091163382	5.1475394	9.6404672	16.510541
107	6	2	-0.60549378	6.3768518	9.3937343	15.688006
108	6	1	0.091163382	5.9769982	8.7504584	14.401921
109	6	1	0.091163382	7.2831017	8.4708029	16.449975
110	6	1	0.090200476	7.0519418	10.733432	15.438141
111	6	1	0.1250061	8.4502965	10.706453	14.754249
112	6	3	-0.58036166	8.4140289	10.167532	13.424741
113	6	4	0.10271815	4.6382692	8.7027955	16.752833
114	6	4	0.10271815	5.4081756	10.126511	17.45559
115	6	4	0.10271815	4.450098	10.304024	15.990391
116	6	4	0.10271815	6.8573588	8.4596705	13.820806
117	6	4	0.10271815	5.3786761	9.4371182	13.795459
118	6	4	0.10271815	5.3869957	7.8483093	14.58984
119	6	4	0.10271815	6.7722148	7.5317466	16.683338
120	6	4	0.10271815	8.1819427	8.2328528	15.873127
121	6	4	0.10271815	7.5803989	8.9221525	17.401388
122	6	4	0.12002882	7.1606362	11.255609	16.393549
123	6	4	0.12002882	6.389116	11.378424	14.853388
124	6	5	0.045879088	8.8254195	11.733183	14.705286
125	6	5	0.045879088	9.1639417	10.146066	15.365776
126	6	6	0.44087953	8.6960393	9.2346299	13.389229
127	7	1	0.091163382	6.1449713	24.794698	33.609438
128	7	2	-0.60549378	6.2038678	25.908873	32.613559
129	7	1	0.091163382	5.6865168	27.158828	33.257887
130	7	1	0.091163382	5.3213978	25.559931	31.452866
131	7	1	0.090200476	7.6220363	26.139119	32.127595
132	7	1	0.1250061	8.2918864	24.907007	31.468349
133	7	3	-0.58036166	9.5372665	25.300291	30.883834
134	7	4	0.10271815	5.1254648	24.683764	33.991001
135	7	4	0.10271815	6.4130747	23.842967	33.140805
136	7	4	0.10271815	6.8150347	24.980359	34.454324
137	7	4	0.10271815	5.6749415	27.989292	32.545509
138	7	4	0.10271815	6.309647	27.453885	34.107556
139	7	4	0.10271815	4.6626863	27.016029	33.616593
140	7	4	0.10271815	4.2726508	25.497589	31.758692
141	7	4	0.10271815	5.4023957	26.301098	30.651991
142	7	4	0.10271815	5.5846101	24.579129	31.045387
143	7	4	0.12002882	8.2499844	26.486239	32.953715
144	7	4	0.12002882	7.6177615	26.950948	31.393971
145	7	5	0.045879088	8.4631318	24.126837	32.21621
146	7	5	0.045879088	7.6488167	24.488523	30.68821
147	7	6	0.44087953	10.177417	25.634089	31.539485
148	8	1	0.091163382	57.360806	48.896451	10.46333
149	8	2	-0.60549378	56.011701	48.505926	10.987622
150	8	1	0.091163382	54.960961	48.880115	9.979924
151	8	1	0.091163382	55.760288	49.24716	12.267613
152	8	1	0.090200476	55.984025	46.999502	11.215588
153	8	1	0.1250061	54.893842	46.489048	12.204679
154	8	3	-0.58036166	53.580317	46.891546	11.801976
155	8	4	0.10271815	57.438455	49.982696	10.356859
156	8	4	0.10271815	58.150783	48.578291	11.150355
157	8	4	0.10271815	57.551184	48.436708	9.4888157
158	8	4	0.10271815	53.958616	48.65871	10.358827
159	8	4	0.10271815	55.086975	48.31068	9.0540969
160	8	4	0.10271815	55.005388	49.946704	9.7397077
161	8	4	0.10271815	55.793753	50.328259	12.102097
162	8	4	0.10271815	54.776974	48.995576	12.676371
163	8	4	0.10271815	56.523657	49.0031	13.012592
164	8	4	0.12002882	56.958141	46.668596	11.588266
165	8	4	0.12002882	55.843563	46.485329	10.25998
166	8	5	0.045879088	54.941525	45.397191	12.258215
167	8	5	0.045879088	55.099373	46.854959	13.2152
168	8	6	0.44087953	53.35608	46.592007	10.901369
169	9	1	0.091163382	4.2192617	26.713388	49.704804
170	9	2	-0.60549378	5.3546339	26.661463	48.72746
171	9	1	0.091163382	6.1283851	27.932189	48.811178
172	9	1	0.091163382	4.8047566	26.542063	47.340927
173	9	1	0.090200476	6.2915748	25.5213	49.076962
174	9	1	0.1250061	5.7677406	24.081242	48.804216
175	9	3	-0.58036166	5.627656	23.810761	47.39862
176	9	4	0.10271815	3.5531282	27.550411	49.474697
177	9	4	0.10271815	3.6312717	25.791214	49.670901
178	9	4	0.10271815	4.5908558	26.841662	50.725961
179	9	4	0.10271815	7.0141506	27.89042	48.170114
180	9	4	0.10271815	6.4592904	28.116884	49.837666
181	9	4	0.10271815	5.5139446	28.773625	48.476906
182	9	4	0.10271815	4.1577417	27.392268	47.104688
183	9	4	0.10271815	5.6171376	26.528296	46.608033
184	9	4	0.10271815	4.2121491	25.62906	47.228971
185	9	4	0.12002882	6.5442151	25.595591	50.139008
186	9	4	0.12002882	7.2391117	25.652969	48.545804
187	9	5	0.045879088	6.473034	23.364432	49.23553
188	9	5	0.045879088	4.8123726	23.922267	49.313416
189	9	6	0.44087953	6.355294	24.168644	46.856823
190	10	1	0.091163382	49.408007	14.415597	30.841112
191	10	2	-0.60549378	48.852739	13.034364	30.999234
192	10	1	0.091163382	47.439442	13.031669	30.495639
193	10	1	0.091163382	48.860288	12.670336	32.451694
194	10	1	0.090200476	49.667754	12.044798	30.184908
195	10	1	0.1250061	51.15109	11.848885	30.614395
196	10	3	-0.58036166	51.278067	11.149733	31.862431
197	10	4	0.10271815	48.870039	15.120714	31.48196
198	10	4	0.10271815	50.46381	14.450639	31.126323
199	10	4	0.10271815	49.317641	14.753762	29.804401
200	10	4	0.10271815	46.972189	12.052414	30.637147
201	10	4	0.10271815	47.406635	13.268178	29.4278
202	10	4	0.10271815	46.8363	13.781968	31.01579
203	10	4	0.10271815	48.222575	13.351282	33.023469
204	10	4	0.10271815	48.504643	11.646452	32.601588
205	10	4	0.10271815	49.870501	12.748991	32.864697
206	10	4	0.12002882	49.674878	12.381347	29.14377
207	10	4	0.12002882	49.169774	11.0706	30.169446
208	10	5	0.045879088	51.669455	11.278635	29.837608
209	10	5	0.045879088	51.655927	12.817914	30.672793
210	10	6	0.44087953	50.976686	10.223671	31.810744
211	11	1	0.091163382	2.7520123	48.032432	15.116793
212	11	2	-0.60549378	2.9469833	47.115822	16.290082
213	11	1	0.091163382	2.8803462	45.696802	15.81829
214	11	1	0.091163382	1.8521981	47.352328	17.296131
215	11	1	0.090200476	4.3029404	47.347088	16.942679
216	11	1	0.1250061	4.7517169	48.830733	17.089114
217	11	3	-0.58036166	3.8077214	49.601164	17.837559
218	11	4	0.10271815	1.781316	47.861185	14.641701
219	11	4	0.10271815	2.7887151	49.080658	15.428495
220	11	4	0.10271815	3.5316056	47.878714	14.364535
221	11	4	0.10271815	2.9879236	45.003505	16.657964
222	11	4	0.10271815	3.6845568	45.487003	15.106589
223	11	4	0.10271815	1.9255918	45.494361	15.323567
224	11	4	0.10271815	0.86553544	47.169132	16.859984
225	11	4	0.10271815	1.9730198	46.704602	18.169708
226	11	4	0.10271815	1.8626237	48.384342	17.659628
227	11	4	0.12002882	5.0734562	46.821017	16.370976
228	11	4	0.12002882	4.3092594	46.889505	17.936594
229	11	5	0.045879088	5.721252	48.858604	17.595584
230	11	5	0.045879088	4.8988149	49.278717	16.101713
231	11	6	0.44087953	3.598229	49.197035	18.700051
232	12	1	0.091163382	48.969607	22.564156	14.786094
233	12	2	-0.60549378	47.593598	22.158279	15.221249
234	12	1	0.091163382	46.701927	23.358867	15.193287
235	12	1	0.091163382	47.665257	21.63811	16.623375
236	12	1	0.090200476	47.01705	21.10101	14.296858
237	12	1	0.1250061	48.016205	20.02059	13.787888
238	12	3	-0.58036166	48.735046	19.400985	14.85851
239	12	4	0.10271815	49.35863	23.371668	15.413692
240	12	4	0.10271815	49.668741	21.725662	14.859767
241	12	4	0.10271815	48.966126	22.916141	13.750052
242	12	4	0.10271815	45.670524	23.088973	15.439576
243	12	4	0.10271815	46.712651	23.825734	14.203738
244	12	4	0.10271815	47.044024	24.108796	15.912913
245	12	4	0.10271815	48.019304	22.415771	17.30688
246	12	4	0.10271815	46.685295	21.289442	16.963072
247	12	4	0.10271815	48.365722	20.800459	16.693931
248	12	4	0.12002882	46.574764	21.587322	13.422118
249	12	4	0.12002882	46.182814	20.597579	14.794749
250	12	5	0.045879088	47.461867	19.259075	13.231028
251	12	5	0.045879088	48.725457	20.469899	13.086195
252	12	6	0.44087953	48.150282	19.066926	15.563883
253	13	1	0.091163382	0.54029033	16.755564	51.543784
254	13	2	-0.60549378	1.529185	15.719138	51.104884
255	13	1	0.091163382	2.2764586	16.236626	49.913483
256	13	1	0.091163382	0.7947994	14.468955	50.719523
257	13	1	0.090200476	2.4892342	15.44879	52.252007
258	13	1	0.1250061	3.6280861	14.417155	51.980767
259	13	3	-0.58036166	4.6404028	14.955517	51.119456
260	13	4	0.10271815	-0.1439966	17.011318	50.729151
261	13	4	0.10271815	-0.056237732	16.392692	52.38626
262	13	4	0.10271815	1.05193	17.670708	51.85688
263	13	4	0.10271815	2.9585806	15.475205	49.523306
264	13	4	0.10271815	2.8621522	17.121071	50.181828
265	13	4	0.10271815	1.5901238	16.508273	49.105744
266	13	4	0.10271815	0.21413866	14.622282	49.804859
267	13	4	0.10271815	1.4898662	13.645138	50.53112
268	13	4	0.10271815	0.10753145	14.156574	51.511588
269	13	4	0.12002882	1.9148687	15.10048	53.115764
270	13	4	0.12002882	2.9529464	16.388898	52.565784
271	13	5	0.045879088	4.0900743	14.149293	52.93581
272	13	5	0.045879088	3.2222337	13.493121	51.558003
273	13	6	0.44087953	5.4011625	14.355975	51.005936
274	14	1	0.091163382	19.959286	27.903888	20.66046
275	14	2	-0.60549378	19.742208	27.965887	19.180672
276	14	1	0.091163382	20.617459	29.029901	18.592091
277	14	1	0.091163382	18.303806	28.289409	18.900796
278	14	1	0.090200476	20.126684	26.641693	18.551455
279	14	1	0.1250061	19.24068	25.421524	18.917217
280	14	3	-0.58036166	17.973012	25.49684	18.254821
281	14	4	0.10271815	19.737796	28.867559	21.129041
282	14	4	0.10271815	19.304563	27.158315	21.121707
283	14	4	0.10271815	20.994148	27.637637	20.89596
284	14	4	0.10271815	20.481761	29.084811	17.50772
285	14	4	0.10271815	21.673346	28.802967	18.767867
286	14	4	0.10271815	20.393889	30.010631	19.022752
287	14	4	0.10271815	18.038391	29.277055	19.289894
288	14	4	0.10271815	18.102127	28.265371	17.825605
289	14	4	0.10271815	17.644194	27.559271	19.379441
290	14	4	0.12002882	21.157508	26.408553	18.834887
291	14	4	0.12002882	20.145631	26.737311	17.461598
292	14	5	0.045879088	19.755409	24.509268	18.600782
293	14	5	0.045879088	19.103473	25.347242	20.000243
294	14	6	0.44087953	17.500257	24.643855	18.258739
295	15	1	0.091163382	8.7306702	12.142659	42.201056
296	15	2	-0.60549378	10.127847	11.615069	42.348022
297	15	1	0.091163382	11.083184	12.639869	41.829133
298	15	1	0.091163382	10.271717	10.365031	41.537857
299	15	1	0.090200476	10.450778	11.347344	43.803535
300	15	1	0.1250061	9.5142412	10.340604	44.528656
301	15	3	-0.58036166	9.6888459	9.0084285	44.036365
302	15	4	0.10271815	8.5150635	12.375031	41.153769
303	15	4	0.10271815	7.9952502	11.403711	42.533321
304	15	4	0.10271815	8.5979354	13.055372	42.789807
305	15	4	0.10271815	12.113804	12.279505	41.901593
306	15	4	0.10271815	11.007432	13.565915	42.407055
307	15	4	0.10271815	10.870368	12.867992	40.780344
308	15	4	0.10271815	10.270642	10.592929	40.467649
309	15	4	0.10271815	11.208823	9.8514432	41.773119
310	15	4	0.10271815	9.4464487	9.674837	41.73749
311	15	4	0.12002882	10.419464	12.293863	44.35163
312	15	4	0.12002882	11.481731	10.991642	43.892417
313	15	5	0.045879088	9.7413057	10.356002	45.598931
314	15	5	0.045879088	8.4690005	10.646205	44.42204
315	15	6	0.44087953	10.608785	8.6957997	44.120479
316	16	1	0.091163382	38.864765	29.25385	26.337826
317	16	2	-0.60549378	40.062499	30.060601	26.746652
318	16	1	0.091163382	41.279011	29.490056	26.085119
319	16	1	0.091163382	40.250359	29.981415	28.228378
320	16	1	0.090200476	39.902399	31.502903	26.294367
321	16	1	0.1250061	38.641539	32.257302	26.825023
322	16	3	-0.58036166	38.666728	32.450583	28.250608
323	16	4	0.10271815	39.023769	28.18979	26.537285
324	16	4	0.10271815	37.971492	29.571948	26.883872
325	16	4	0.10271815	38.669605	29.367685	25.2672
326	16	4	0.10271815	42.173052	30.059431	26.356771
327	16	4	0.10271815	41.175275	29.518564	24.996214
328	16	4	0.10271815	41.436095	28.449376	26.384449
329	16	4	0.10271815	40.45177	28.950205	28.533883
330	16	4	0.10271815	41.091847	30.606272	28.542607
331	16	4	0.10271815	39.352763	30.320539	28.754308
332	16	4	0.12002882	39.87148	31.524749	25.200815
333	16	4	0.12002882	40.793715	32.076361	26.566374
334	16	5	0.045879088	38.593988	33.236139	26.338291
335	16	5	0.045879088	37.731454	31.722705	26.536503
336	16	6	0.44087953	39.497442	32.863088	28.55202
337	17	1	0.091163382	15.91593	38.458076	2.124773
338	17	2	-0.60549378	16.256312	37.740171	3.3914912
339	17	1	0.091163382	16.414765	36.279552	3.0787522
340	17	1	0.091163382	15.134244	37.901165	4.3833959
341	17	1	0.090200476	17.565824	38.288848	3.938247
342	17	1	0.1250061	17.822475	38.052175	5.4522628
343	17	3	-0.58036166	17.661043	36.674817	5.8157766
344	17	4	0.10271815	14.95052	38.119082	1.7370138
345	17	4	0.10271815	15.865966	39.539583	2.2832969
346	17	4	0.10271815	16.675884	38.267024	1.3610595
347	17	4	0.10271815	16.519247	35.691786	3.9957589
348	17	4	0.10271815	17.300284	36.101382	2.4611764
349	17	4	0.10271815	15.539492	35.895691	2.5459883
350	17	4	0.10271815	14.176731	37.614374	3.938188
351	17	4	0.10271815	15.29433	37.254486	5.2514219
352	17	4	0.10271815	15.058026	38.933525	4.7379515
353	17	4	0.12002882	17.624395	39.365025	3.7492901
354	17	4	0.12002882	18.398757	37.852209	3.3789092
355	17	5	0.045879088	18.836302	38.381636	5.6990445
356	17	5	0.045879088	17.138822	38.670311	6.0420209
357	17	6	0.44087953	18.22243	36.074455	5.290885
358	18	1	0.091163382	54.152522	20.579612	20.113254
359	18	2	-0.60549378	53.303795	20.382924	21.333799
360	18	1	0.091163382	53.887053	19.284823	22.174146
361	18	1	0.091163382	51.919632	19.963678	20.917141
362	18	1	0.090200476	53.22669	21.649988	22.172983
363	18	1	0.1250061	52.898035	22.964377	21.407812
364	18	3	-0.58036166	51.63403	22.891495	20.738807
365	18	4	0.10271815	54.176235	19.667902	19.508679
366	18	4	0.10271815	53.751626	21.381154	19.485482
367	18	4	0.10271815	55.179071	20.84049	20.387895
368	18	4	0.10271815	53.359094	19.208914	23.129544
369	18	4	0.10271815	54.946213	19.461917	22.384162
370	18	4	0.10271815	53.784137	18.315166	21.677697
371	18	4	0.10271815	51.932988	18.972988	20.452769
372	18	4	0.10271815	51.255202	19.905856	21.784599
373	18	4	0.10271815	51.486101	20.67239	20.205059
374	18	4	0.12002882	54.175777	21.796281	22.697504
375	18	4	0.12002882	52.47436	21.514382	22.955863
376	18	5	0.045879088	52.878866	23.793972	22.121041
377	18	5	0.045879088	53.693333	23.183029	20.688796
378	18	6	0.44087953	51.41541	23.698936	20.237474
379	19	1	0.091163382	8.2448918	7.1844518	49.90643
380	19	2	-0.60549378	7.6459342	8.2663113	49.05827
381	19	1	0.091163382	7.6333463	9.5411718	49.841847
382	19	1	0.091163382	6.2311691	7.8977764	48.719153
383	19	1	0.090200476	8.4768486	8.4823608	47.808185
384	19	1	0.1250061	8.5915333	7.2731525	46.843367
385	19	3	-0.58036166	7.3553234	7.0224845	46.167474
386	19	4	0.10271815	7.7454925	7.1355915	50.878797
387	19	4	0.10271815	8.1541026	6.2073582	49.42235
388	19	4	0.10271815	9.3046331	7.3800182	50.09614
389	19	4	0.10271815	7.1772927	10.352012	49.26579
390	19	4	0.10271815	8.6481637	9.8399782	50.121403
391	19	4	0.10271815	7.0629334	9.4180501	50.76746
392	19	4	0.10271815	5.6448597	7.7358246	49.628716
393	19	4	0.10271815	5.7487017	8.6938947	48.144078
394	19	4	0.10271815	6.1935693	6.9788963	48.126249
395	19	4	0.12002882	9.490028	8.7701601	48.104715
396	19	4	0.12002882	8.0780971	9.3309724	47.244143
397	19	5	0.045879088	9.3654543	7.4921834	46.101508
398	19	5	0.045879088	8.9180458	6.3778239	47.381015
399	19	6	0.44087953	6.9106424	7.8388172	45.872588
400	20	1	0.091163382	36.377103	22.534788	33.094258
401	20	2	-0.60549378	36.195519	23.407352	31.885939
402	20	1	0.091163382	35.680673	22.571919	30.744448
403	20	1	0.091163382	37.524614	23.995008	31.499746
404	20	1	0.090200476	35.199945	24.512355	32.217212
405	20	1	0.1250061	35.04817	25.655906	31.168656
406	20	3	-0.58036166	34.549642	25.182238	29.914937
407	20	4	0.10271815	37.084343	21.72539	32.889373
408	20	4	0.10271815	36.764052	23.112526	33.939114
409	20	4	0.10271815	35.427053	22.085497	33.398938
410	20	4	0.10271815	35.629718	23.156741	29.821043
411	20	4	0.10271815	34.675014	22.195055	30.953991
412	20	4	0.10271815	36.339912	21.719971	30.552418
413	20	4	0.10271815	38.260756	23.209701	31.303079
414	20	4	0.10271815	37.436602	24.593256	30.5878
415	20	4	0.10271815	37.917204	24.64339	32.288897
416	20	4	0.12002882	35.480571	24.972546	33.169453
417	20	4	0.12002882	34.210296	24.075234	32.380943
418	20	5	0.045879088	34.346285	26.396027	31.564717
419	20	5	0.045879088	35.997691	26.179919	31.023378
420	20	6	0.44087953	35.247939	25.063715	29.244537
421	21	1	0.091163382	7.536267	41.784368	24.664214
422	21	2	-0.60549378	8.4819591	41.591892	25.811574
423	21	1	0.091163382	9.3673706	40.429263	25.497344
424	21	1	0.091163382	7.6968402	41.312823	27.0558
425	21	1	0.090200476	9.3059677	42.857623	25.970383
426	21	1	0.1250061	10.201274	42.944956	27.241335
427	21	3	-0.58036166	11.117821	41.84835	27.337699
428	21	4	0.10271815	6.887055	40.913358	24.533265
429	21	4	0.10271815	6.908021	42.66654	24.820335
430	21	4	0.10271815	8.084169	41.94067	23.730052
431	21	4	0.10271815	10.009338	40.175719	26.34639
432	21	4	0.10271815	10.009192	40.657349	24.640994
433	21	4	0.10271815	8.7723964	39.546027	25.245974
434	21	4	0.10271815	7.0556545	40.435848	26.925092
435	21	4	0.10271815	8.3636707	41.130505	27.903965
436	21	4	0.10271815	7.0590174	42.164283	27.311702
437	21	4	0.12002882	8.6347896	43.721786	25.975897
438	21	4	0.12002882	9.9359214	42.993751	25.086124
439	21	5	0.045879088	10.762819	43.883657	27.213209
440	21	5	0.045879088	9.5769739	42.984552	28.139093
441	21	6	0.44087953	11.659738	41.739664	26.534204
442	22	1	0.091163382	26.753049	14.171282	7.4022573
443	22	2	-0.60549378	27.760303	14.842794	8.2862246
444	22	1	0.091163382	29.036317	14.058791	8.277477
445	22	1	0.091163382	27.2276	14.896718	9.6904421
446	22	1	0.090200476	28.067157	16.244764	7.7831823
447	22	1	0.1250061	26.853566	17.198997	7.6051962
448	22	3	-0.58036166	26.26579	17.579087	8.856352
449	22	4	0.10271815	26.591821	13.134799	7.7136987
450	22	4	0.10271815	25.789354	14.686893	7.454505
451	22	4	0.10271815	27.087865	14.170359	6.360535
452	22	4	0.10271815	29.769907	14.508557	8.9533824
453	22	4	0.10271815	29.477737	14.046652	7.2763324
454	22	4	0.10271815	28.864264	13.027451	8.6000019
455	22	4	0.10271815	27.047758	13.892257	10.085417
456	22	4	0.10271815	27.928309	15.402745	10.361432
457	22	4	0.10271815	26.279118	15.440736	9.7318357
458	22	4	0.12002882	28.567364	16.167061	6.8131089
459	22	4	0.12002882	28.797915	16.726433	8.4399009
460	22	5	0.045879088	27.199056	18.098845	7.0873201
461	22	5	0.045879088	26.097877	16.738832	6.9614023
462	22	6	0.44087953	25.450225	18.102101	8.7449795
463	23	1	0.091163382	46.759801	7.9274076	24.061313
464	23	2	-0.60549378	48.145828	8.4781146	24.245026
465	23	1	0.091163382	49.121566	7.5446498	23.6112
466	23	1	0.091163382	48.435078	8.576079	25.7092
467	23	1	0.090200476	48.29319	9.8565739	23.593512
468	23	1	0.1250061	47.03074	10.767785	23.589501
469	23	3	-0.58036166	46.46441	10.90674	24.893317
470	23	4	0.10271815	46.649456	6.9681114	24.575961
471	23	4	0.10271815	46.009731	8.6119515	24.468842
472	23	4	0.10271815	46.533213	7.770623	23.002367
473	23	4	0.10271815	50.141635	7.9303533	23.700521
474	23	4	0.10271815	48.894567	7.4247354	22.547536
475	23	4	0.10271815	49.078922	6.5592158	24.084899
476	23	4	0.10271815	48.44358	7.5859588	26.174901
477	23	4	0.10271815	49.399457	9.0600973	25.89082
478	23	4	0.10271815	47.666268	9.1713005	26.211126
479	23	4	0.12002882	48.610249	9.7386247	22.55291
480	23	4	0.12002882	49.105864	10.405159	24.079208
481	23	5	0.045879088	47.304678	11.75403	23.202763
482	23	5	0.045879088	46.276355	10.364215	22.907355
483	23	6	0.44087953	47.109256	11.22292	25.553093
484	24	1	0.091163382	14.769372	32.455559	37.906206
485	24	2	-0.60549378	15.763671	31.362555	38.168662
486	24	1	0.091163382	16.827774	31.880407	39.091418
487	24	1	0.091163382	16.387919	30.947063	36.865947
488	24	1	0.090200476	15.072161	30.185013	38.831279
489	24	1	0.1250061	14.09529	29.390969	37.916758
490	24	3	-0.58036166	14.811543	28.472183	37.08303
491	24	4	0.10271815	15.251513	33.311007	37.42347
492	24	4	0.10271815	13.976778	32.110302	37.235472
493	24	4	0.10271815	14.313887	32.801499	38.839023
494	24	4	0.10271815	17.628012	31.14501	39.218292
495	24	4	0.10271815	16.416416	32.097096	40.08193
496	24	4	0.10271815	17.276411	32.80055	38.70496
497	24	4	0.10271815	16.91118	31.785171	36.395774
498	24	4	0.10271815	17.10445	30.133917	37.016504
499	24	4	0.10271815	15.624174	30.598681	36.164083
500	24	4	0.12002882	14.519862	30.544255	39.704893
501	24	4	0.12002882	15.815181	29.487302	39.22929
502	24	5	0.045879088	13.395121	28.827448	38.540852
503	24	5	0.045879088	13.49835	30.072498	37.303185
504	24	6	0.44087953	15.296514	27.797956	37.594218
505	25	1	0.091163382	21.337564	48.564653	24.658015
506	25	2	-0.60549378	20.73216	49.89903	24.313066
507	25	1	0.091163382	19.699714	49.715042	23.234835
508	25	1	0.091163382	21.820726	50.80452	23.813519
509	25	1	0.090200476	20.101712	50.527811	25.548615
510	25	1	0.1250061	18.720971	49.952765	25.983112
511	25	3	-0.58036166	18.799744	48.555861	26.274593
512	25	4	0.10271815	21.87923	48.144212	23.805301
513	25	4	0.10271815	22.043447	48.658013	25.488856
514	25	4	0.10271815	20.567417	47.847509	24.95779
515	25	4	0.10271815	19.172585	50.652399	23.032863
516	25	4	0.10271815	18.954287	48.972559	23.535409
517	25	4	0.10271815	20.160494	49.377909	22.301395
518	25	4	0.10271815	22.319391	50.370607	22.941544
519	25	4	0.10271815	21.415901	51.779518	23.525803
520	25	4	0.10271815	22.580905	50.969744	24.583011
521	25	4	0.12002882	19.979188	51.601944	25.379763
522	25	4	0.12002882	20.786498	50.437593	26.397271
523	25	5	0.045879088	18.379102	50.485883	26.87541
524	25	5	0.045879088	17.971784	50.129428	25.205424
525	25	6	0.44087953	19.454551	48.355289	26.968925
526	26	1	0.091163382	38.704712	0.58554977	32.68657
527	26	2	-0.60549378	38.37774	1.6589326	33.673894
528	26	1	0.091163382	39.433463	1.6488697	34.742885
529	26	1	0.091163382	37.043707	1.3479419	34.289789
530	26	1	0.090200476	38.344576	3.0053538	32.959712
531	26	1	0.1250061	37.919543	4.232952	33.818398
532	26	3	-0.58036166	38.824794	4.4893405	34.904995
533	26	4	0.10271815	38.733399	-0.39163094	33.178084
534	26	4	0.10271815	37.952394	0.54368749	31.893125
535	26	4	0.10271815	39.683809	0.7628385	32.231348
536	26	4	0.10271815	39.192863	2.3557584	35.542703
537	26	4	0.10271815	40.409746	1.921263	34.330626
538	26	4	0.10271815	39.524252	0.65567069	35.192997
539	26	4	0.10271815	37.056	0.36132216	34.762778
540	26	4	0.10271815	36.777499	2.0863196	35.052166
541	26	4	0.10271815	36.249497	1.3550517	33.537149
542	26	4	0.12002882	37.655251	2.9464895	32.111974
543	26	4	0.12002882	39.328251	3.2165784	32.529526
544	26	5	0.045879088	37.878549	5.1115698	33.167522
545	26	5	0.045879088	36.904776	4.0916961	34.202566
546	26	6	0.44087953	39.756467	4.5231512	34.618745
547	27	1	0.091163382	9.7777838	58.170648	46.028514
548	27	2	-0.60549378	8.7669289	57.119808	45.703349
549	27	1	0.091163382	9.0110004	55.934305	46.58494
550	27	1	0.091163382	8.934083	56.705136	44.265814
551	27	1	0.090200476	7.3579091	57.631111	45.952601
552	27	1	0.1250061	6.9970977	59.005799	45.313449
553	27	3	-0.58036166	7.0193684	58.954129	43.884039
554	27	4	0.10271815	10.793207	57.792892	45.875211
555	27	4	0.10271815	9.6537673	59.039121	45.374556
556	27	4	0.10271815	9.690975	58.495193	47.069874
557	27	4	0.10271815	8.3557016	55.100732	46.314702
558	27	4	0.10271815	8.8196403	56.182103	47.633395
559	27	4	0.10271815	10.047992	55.595527	46.500282
560	27	4	0.10271815	9.9332052	56.293464	44.093857
561	27	4	0.10271815	8.1973636	55.94635	43.985138
562	27	4	0.10271815	8.8111132	57.558775	43.592415
563	27	4	0.12002882	7.1948421	57.709556	47.031741
564	27	4	0.12002882	6.635198	56.885595	45.607367
565	27	5	0.045879088	5.9968817	59.301882	45.643888
566	27	5	0.045879088	7.6817614	59.780846	45.670977
567	27	6	0.44087953	6.9528741	59.835887	43.472719
568	28	1	0.091163382	42.46563	48.730264	52.1415
569	28	2	-0.60549378	43.953848	48.846989	52.2861
570	28	1	0.091163382	44.293027	49.21288	53.699517
571	28	1	0.091163382	44.444909	49.926882	51.362863
572	28	1	0.090200476	44.607267	47.514739	51.954985
573	28	1	0.1250061	44.638572	47.130456	50.4458
574	28	3	-0.58036166	45.622268	47.887778	49.73094
575	28	4	0.10271815	41.973238	49.688478	52.332997
576	28	4	0.10271815	42.197771	48.432565	51.123209
577	28	4	0.10271815	42.059388	47.984543	52.83154
578	28	4	0.10271815	45.374594	49.326348	53.820462
579	28	4	0.10271815	43.95679	48.43822	54.395318