Title

10850 atoms
9800 bonds
16275 angles
24850 dihedrals
0 impropers

7 atom types
5 bond types
4 angle types
12 dihedral types
-7.025722861 52.97427714 xlo xhi
-5.519821644 54.48017836 ylo yhi
-4.596270621 55.40372938 zlo zhi
0.0 0.0 0.0 xy xz yz

Masses

1	12.01078
2	14.00672
3	15.99943
4	1.007947
5	1.007947
6	1.007947
7	35.4532


Pair Coeffs

1	0.10884061	3.3795318
2	0.16769152	3.206876
3	0.20947353	2.99716
4	0.0157	1.9599772
5	0.016409246	2.5832257
6	1.2326e-05	0.53453923
7	0.035591	4.477657

Bond Coeffs

1 harmonic	225.97114073395	1.477375101044
2 harmonic	357.8191474159	1.094206460752
3 harmonic	215.30139056395	1.533627603844
4 harmonic	258.9527804663	1.426323519316
5 harmonic	538.350794015	0.9752301008088


Angle Coeffs

1 harmonic	124.0884341307	113.2116558678
2 harmonic	66.75631831595	109.9380527584
3 harmonic	119.8958895535	112.8736161145
4 harmonic	36.776637850755	108.3543135269


Dihedral Coeffs

1 fourier 1	0.1113575199827	3	0
2 fourier 1	0.07484583104594	3	0
3 fourier 1	0.3153839995235	2	180
4 fourier 1	0.143904881748	3	0
5 fourier 1	0.4431584714139	3	0
6 fourier 1	0.1140296769156	1	0
7 fourier 1	0.1311347012225	3	0
8 fourier 1	0.436546671918	1	0
9 fourier 1	0.2279946533057	3	0
10 fourier 1	0.3636269884643333	3	0
11 fourier 1	-0.01533770820035	3	0
12 fourier 1	0.4191503124266	2	0


Atoms

1	1	1	0.091163382	12.545273	3.5945717	42.548532
2	1	2	-0.60549378	13.735029	4.2948437	43.141465
3	1	1	0.091163382	14.928052	3.3951935	43.024664
4	1	1	0.091163382	13.470225	4.5412722	44.596996
5	1	1	0.090200476	14.020138	5.6138611	42.426829
6	1	1	0.1250061	12.774866	6.5084904	42.151947
7	1	3	-0.58036166	12.165791	6.9605458	43.364511
8	1	4	0.10271815	12.388457	2.6245376	43.029919
9	1	4	0.10271815	11.635236	4.184818	42.692509
10	1	4	0.10271815	12.683573	3.4216073	41.47697
11	1	4	0.10271815	15.813856	3.8576621	43.470492
12	1	4	0.10271815	15.149019	3.1698719	41.976957
13	1	4	0.10271815	14.747109	2.4487534	43.543124
14	1	4	0.10271815	13.318506	3.5946742	45.124464
15	1	4	0.10271815	14.310864	5.063718	45.063543
16	1	4	0.10271815	12.572531	5.1519763	44.732919
17	1	4	0.12002882	14.503533	5.4099792	41.466594
18	1	4	0.12002882	14.746195	6.1976564	43.000689
19	1	5	0.045879088	13.07482	7.3770738	41.557908
20	1	5	0.045879088	12.042524	5.9639877	41.548223
21	1	6	0.44087953	12.62592	7.7309614	43.746405
22	2	1	0.091163382	39.34824	22.768044	13.938687
23	2	2	-0.60549378	39.428675	21.48335	14.716133
24	2	1	0.091163382	38.140237	21.265678	15.450571
25	2	1	0.091163382	40.536222	21.568198	15.724549
26	2	1	0.090200476	39.662018	20.310254	13.779728
27	2	1	0.1250061	40.859294	20.45377	12.788311
28	2	3	-0.58036166	42.116117	20.578368	13.469253
29	2	4	0.10271815	39.149373	23.618519	14.597801
30	2	4	0.10271815	40.288177	22.965746	13.414547
31	2	4	0.10271815	38.546729	22.727201	13.194914
32	2	4	0.10271815	38.179042	20.349648	16.047788
33	2	4	0.10271815	37.299325	21.184366	14.755197
34	2	4	0.10271815	37.93509	22.093434	16.136154
35	2	4	0.10271815	40.291018	22.277255	16.521045
36	2	4	0.10271815	40.710187	20.592539	16.188354
37	2	4	0.10271815	41.468334	21.892371	15.251924
38	2	4	0.12002882	38.75437	20.132506	13.195031
39	2	4	0.12002882	39.811149	19.400086	14.368491
40	2	5	0.045879088	40.890174	19.570857	12.142712
41	2	5	0.045879088	40.707326	21.314535	12.130071
42	2	6	0.44087953	42.30422	19.825101	14.059423
43	3	1	0.091163382	7.288003	52.241268	15.689443
44	3	2	-0.60549378	7.6332909	53.555341	15.047306
45	3	1	0.091163382	6.5051073	53.965502	14.153631
46	3	1	0.091163382	8.8614416	53.386402	14.20446
47	3	1	0.090200476	7.8643912	54.624538	16.102713
48	3	1	0.1250061	8.6491477	54.162598	17.366707
49	3	3	-0.58036166	9.8489726	53.448153	17.043835
50	3	4	0.10271815	7.061708	51.484389	14.932338
51	3	4	0.10271815	8.1284994	51.865759	16.280921
52	3	4	0.10271815	6.4202523	52.341681	16.348393
53	3	4	0.10271815	6.7156982	54.925723	13.673096
54	3	4	0.10271815	5.5758125	54.069862	14.721793
55	3	4	0.10271815	6.3450396	53.218861	13.369924
56	3	4	0.10271815	8.6541742	52.732019	13.352337
57	3	4	0.10271815	9.2095673	54.346972	13.812796
58	3	4	0.10271815	9.6720552	52.929463	14.780133
59	3	4	0.12002882	6.8995112	55.013151	16.442235
60	3	4	0.12002882	8.380692	55.47946	15.655689
61	3	5	0.045879088	8.8915336	55.03468	17.98153
62	3	5	0.045879088	8.0066574	53.521185	17.977515
63	3	6	0.44087953	10.519576	54.001946	16.602591
64	4	1	0.091163382	17.402951	32.423475	22.061551
65	4	2	-0.60549378	16.156739	32.474272	21.22957
66	4	1	0.091163382	15.245781	31.367099	21.660361
67	4	1	0.091163382	16.526676	32.262506	19.792318
68	4	1	0.090200476	15.434899	33.802698	21.405821
69	4	1	0.1250061	16.309221	35.083191	21.253085
70	4	3	-0.58036166	16.911271	35.186324	19.95639
71	4	4	0.10271815	17.918613	31.467614	21.928475
72	4	4	0.10271815	18.095802	33.221483	21.777949
73	4	4	0.10271815	17.171896	32.535486	23.125203
74	4	4	0.10271815	14.357326	31.320033	21.0234
75	4	4	0.10271815	14.923841	31.506426	22.696815
76	4	4	0.10271815	15.754586	30.400708	21.593351
77	4	4	0.10271815	16.908909	31.249368	19.635022
78	4	4	0.10271815	15.657374	32.401028	19.142385
79	4	4	0.10271815	17.299923	32.969084	19.475888
80	4	4	0.12002882	14.975721	33.830867	22.39862
81	4	4	0.12002882	14.6032	33.866324	20.697641
82	4	5	0.045879088	15.680306	35.961697	21.426234
83	4	5	0.045879088	17.085572	35.102606	22.023921
84	4	6	0.44087953	16.254704	35.223053	19.236206
85	5	1	0.091163382	20.73642	8.7265939	26.941302
86	5	2	-0.60549378	20.449193	10.142989	26.568
87	5	1	0.091163382	21.746266	10.849901	26.344211
88	5	1	0.091163382	19.722799	10.810997	27.699466
89	5	1	0.090200476	19.630629	10.176045	25.288494
90	5	1	0.1250061	18.107622	9.9307966	25.46912
91	5	3	-0.58036166	17.461638	11.137404	25.896842
92	5	4	0.10271815	21.274269	8.6786282	27.892988
93	5	4	0.10271815	19.80647	8.1584322	27.039649
94	5	4	0.10271815	21.348493	8.2410318	26.175215
95	5	4	0.10271815	21.582625	11.910144	26.128819
96	5	4	0.10271815	22.283626	10.413183	25.496976
97	5	4	0.10271815	22.38512	10.787275	27.230344
98	5	4	0.10271815	20.360408	10.871577	28.586636
99	5	4	0.10271815	19.43144	11.829468	27.425392
100	5	4	0.10271815	18.814592	10.259911	27.961674
101	5	4	0.12002882	20.018301	9.4156438	24.603813
102	5	4	0.12002882	19.765462	11.136264	24.781456
103	5	5	0.045879088	17.673302	9.6122521	24.516656
104	5	5	0.045879088	17.93275	9.1240042	26.187308
105	5	6	0.44087953	17.372938	11.791495	25.17894
106	6	1	0.091163382	22.345726	4.9921185	28.290045
107	6	2	-0.60549378	20.973871	4.4138235	28.114958
108	6	1	0.091163382	20.312836	5.0743884	26.94782
109	6	1	0.091163382	20.16449	4.6871766	29.356809
110	6	1	0.090200476	21.046298	2.916168	27.858682
111	6	1	0.1250061	21.968904	2.1031375	28.815846
112	6	3	-0.58036166	21.50892	2.1692373	30.16947
113	6	4	0.10271815	22.290604	6.0766739	28.424168
114	6	4	0.10271815	22.829101	4.5818308	29.181843
115	6	4	0.10271815	22.981923	4.7830132	27.424703
116	6	4	0.10271815	19.371917	4.5758727	26.695943
117	6	4	0.10271815	20.954156	5.0404209	26.061907
118	6	4	0.10271815	20.092394	6.1234194	27.167428
119	6	4	0.10271815	20.028274	5.7616788	29.512308
120	6	4	0.10271815	19.175333	4.2234489	29.295058
121	6	4	0.10271815	20.663586	4.2952701	30.248213
122	6	4	0.12002882	21.389358	2.7432916	26.834128
123	6	4	0.12002882	20.040152	2.4885429	27.904477
124	6	5	0.045879088	21.982331	1.0580529	28.491955
125	6	5	0.045879088	22.999477	2.4650991	28.75113
126	6	6	0.44087953	22.084825	1.6947597	30.797389
127	7	1	0.091163382	25.025539	38.816488	13.020269
128	7	2	-0.60549378	26.264014	39.313285	13.699346
129	7	1	0.091163382	25.963635	39.505248	15.155963
130	7	1	0.091163382	26.664009	40.63024	13.091341
131	7	1	0.090200476	27.354167	38.271673	13.552233
132	7	1	0.1250061	27.964125	38.182104	12.137945
133	7	3	-0.58036166	28.817441	37.033288	12.044722
134	7	4	0.10271815	24.208648	39.537051	13.124033
135	7	4	0.10271815	25.195751	38.646169	11.952884
136	7	4	0.10271815	24.69223	37.869277	13.454992
137	7	4	0.10271815	26.803317	39.972379	15.679426
138	7	4	0.10271815	25.759175	38.544898	15.638881
139	7	4	0.10271815	25.076814	40.131192	15.293914
140	7	4	0.10271815	25.878758	41.379647	13.229407
141	7	4	0.10271815	27.584145	41.015835	13.540732
142	7	4	0.10271815	26.839576	40.532904	12.015706
143	7	4	0.12002882	26.943603	37.288287	13.800585
144	7	4	0.12002882	28.159788	38.455603	14.269472
145	7	5	0.045879088	27.168891	38.106873	11.390125
146	7	5	0.045879088	28.538859	39.087405	11.920239
147	7	6	0.44087953	28.573821	36.462641	11.292319
148	8	1	0.091163382	48.480415	49.229751	35.920317
149	8	2	-0.60549378	48.372307	47.888517	36.576335
150	8	1	0.091163382	46.936765	47.489305	36.660483
151	8	1	0.091163382	48.930049	47.96566	37.967715
152	8	1	0.090200476	49.105873	46.85266	35.736156
153	8	1	0.1250061	50.652118	46.86626	35.835812
154	8	3	-0.58036166	51.10642	46.352239	37.100911
155	8	4	0.10271815	47.926488	49.988732	36.481032
156	8	4	0.10271815	49.524503	49.549918	35.85201
157	8	4	0.10271815	48.069205	49.197817	34.906824
158	8	4	0.10271815	46.840868	46.516585	37.152328
159	8	4	0.10271815	46.49806	47.407489	35.661416
160	8	4	0.10271815	46.361265	48.224392	37.231209
161	8	4	0.10271815	48.369346	48.682961	38.574662
162	8	4	0.10271815	48.887768	46.987834	38.45696
163	8	4	0.10271815	49.97582	48.28702	37.948248
164	8	4	0.12002882	48.83544	46.987562	34.68451
165	8	4	0.12002882	48.757124	45.846868	35.989218
166	8	5	0.045879088	51.06349	46.245065	35.034454
167	8	5	0.045879088	51.031699	47.880182	35.677202
168	8	6	0.44087953	50.584092	45.585747	37.402184
169	9	1	0.091163382	57.55053	60.601916	30.266514
170	9	2	-0.60549378	57.580061	60.043659	28.875122
171	9	1	0.091163382	58.066173	61.113629	27.951217
172	9	1	0.091163382	56.18752	59.647837	28.474474
173	9	1	0.090200476	58.527641	58.862267	28.802841
174	9	1	0.1250061	58.12674	57.636046	29.676695
175	9	3	-0.58036166	57.042937	56.901903	29.095199
176	9	4	0.10271815	56.952891	61.517859	30.30076
177	9	4	0.10271815	57.10763	59.888258	30.967813
178	9	4	0.10271815	58.558202	60.850754	30.612869
179	9	4	0.10271815	58.114476	60.747094	26.921356
180	9	4	0.10271815	59.066043	61.44979	28.241987
181	9	4	0.10271815	57.394576	61.977	27.980196
182	9	4	0.10271815	55.525389	60.518794	28.456738
183	9	4	0.10271815	56.181083	59.191065	27.480185
184	9	4	0.10271815	55.768633	58.926935	29.183083
185	9	4	0.12002882	59.523535	59.194636	29.111085
186	9	4	0.12002882	58.639045	58.531222	27.76588
187	9	5	0.045879088	58.988094	56.967878	29.77109
188	9	5	0.045879088	57.863789	57.955484	30.689664
189	9	6	0.44087953	57.277055	56.511393	28.232768
190	10	1	0.091163382	10.626872	11.143675	1.0824848
191	10	2	-0.60549378	9.2282951	10.656421	1.3292837
192	10	1	0.091163382	8.3356762	11.183703	0.24754163
193	10	1	0.091163382	8.7550747	11.174383	2.6598352
194	10	1	0.090200476	9.1707426	9.1346985	1.3363791
195	10	1	0.1250061	10.389944	8.4129113	1.9831634
196	10	3	-0.58036166	10.620028	8.8618702	3.3211026
197	10	4	0.10271815	10.643237	12.230639	0.95786758
198	10	4	0.10271815	11.277977	10.891933	1.9250867
199	10	4	0.10271815	11.048583	10.693727	0.17860744
200	10	4	0.10271815	7.2972625	10.882031	0.41481357
201	10	4	0.10271815	8.6485845	10.812497	-0.73306255
202	10	4	0.10271815	8.3765578	12.276378	0.20656466
203	10	4	0.10271815	8.6854196	12.266364	2.6560497
204	10	4	0.10271815	7.7755904	10.76126	2.9191214
205	10	4	0.10271815	9.4482434	10.889301	3.4570396
206	10	4	0.12002882	9.0689689	8.7668532	0.31089373
207	10	4	0.12002882	8.2683027	8.808735	1.8623452
208	10	5	0.045879088	10.204002	7.3346436	1.9904064
209	10	5	0.045879088	11.287659	8.5738355	1.3785978
210	10	6	0.44087953	9.8474997	8.718527	3.8988173
211	11	1	0.091163382	38.919375	27.826562	49.592857
212	11	2	-0.60549378	38.844829	28.121877	48.126793
213	11	1	0.091163382	38.381248	29.542472	47.940483
214	11	1	0.091163382	37.856846	27.18246	47.499909
215	11	1	0.090200476	40.227962	27.934506	47.513781
216	11	1	0.1250061	40.263319	27.726374	45.969791
217	11	3	-0.58036166	39.500253	28.722064	45.270114
218	11	4	0.10271815	37.94651	27.982414	50.068812
219	11	4	0.10271815	39.218454	26.787856	49.762945
220	11	4	0.10271815	39.648659	28.476391	50.085964
221	11	4	0.10271815	38.289635	29.794214	46.879578
222	11	4	0.10271815	39.086947	30.248184	48.389091
223	11	4	0.10271815	37.405791	29.701328	48.410101
224	11	4	0.10271815	36.862805	27.306995	47.939978
225	11	4	0.10271815	37.771218	27.364585	46.42437
226	11	4	0.10271815	38.162367	26.142304	47.648292
227	11	4	0.12002882	40.721464	27.073834	47.975287
228	11	4	0.12002882	40.856881	28.795664	47.759047
229	11	5	0.045879088	41.303744	27.755797	45.632248
230	11	5	0.045879088	39.882743	26.730351	45.724049
231	11	6	0.44087953	39.59106	28.659437	44.301133
232	12	1	0.091163382	32.514284	7.4503517	14.969189
233	12	2	-0.60549378	31.880674	6.6521764	16.063414
234	12	1	0.091163382	32.777202	6.6873288	17.270682
235	12	1	0.091163382	31.761346	5.2257711	15.613199
236	12	1	0.090200476	30.523405	7.2303683	16.4274
237	12	1	0.1250061	29.544876	7.4607331	15.231328
238	12	3	-0.58036166	29.218569	6.2244391	14.585589
239	12	4	0.10271815	33.52942	7.0919424	14.773413
240	12	4	0.10271815	31.943171	7.3572874	14.040502
241	12	4	0.10271815	32.564611	8.5098833	15.237794
242	12	4	0.10271815	32.349265	6.1099368	18.095775
243	12	4	0.10271815	32.922571	7.7127302	17.623823
244	12	4	0.10271815	33.761077	6.269846	17.036183
245	12	4	0.10271815	32.75094	4.7924078	15.439438
246	12	4	0.10271815	31.246586	4.6205786	16.365563
247	12	4	0.10271815	31.19909	5.1571167	14.677014
248	12	4	0.12002882	30.665002	8.1899315	16.933836
249	12	4	0.12002882	30.025671	6.5825629	17.15534
250	12	5	0.045879088	28.62927	7.9309487	15.602614
251	12	5	0.045879088	29.985437	8.1592137	14.513471
252	12	6	0.44087953	28.763211	6.3403875	13.731014
253	13	1	0.091163382	17.324567	17.429549	2.3933451
254	13	2	-0.60549378	18.33266	17.363145	3.495281
255	13	1	0.091163382	18.048229	18.456624	4.4725981
256	13	1	0.091163382	19.702296	17.572002	2.9213268
257	13	1	0.090200476	18.266431	16.029143	4.2165479
258	13	1	0.1250061	18.128572	14.768585	3.3143342
259	13	3	-0.58036166	19.217479	14.652358	2.3972377
260	13	4	0.10271815	17.308142	18.425692	1.9408903
261	13	4	0.10271815	17.546642	16.697683	1.6108198
262	13	4	0.10271815	16.319505	17.2294	2.7768523
263	13	4	0.10271815	18.707228	18.384354	5.3431076
264	13	4	0.10271815	17.012877	18.410841	4.823657
265	13	4	0.10271815	18.198147	19.437516	4.0114424
266	13	4	0.10271815	19.782711	18.56034	2.4587122
267	13	4	0.10271815	20.467603	17.485955	3.6986241
268	13	4	0.10271815	19.924335	16.821136	2.1570051
269	13	4	0.12002882	17.422252	16.037784	4.9126625
270	13	4	0.12002882	19.157946	15.908998	4.8394892
271	13	5	0.045879088	18.10275	13.879318	3.9513794
272	13	5	0.045879088	17.181671	14.796314	2.7667058
273	13	6	0.44087953	20.077696	14.624592	2.8558853
274	14	1	0.091163382	14.265867	17.172645	22.430642
275	14	2	-0.60549378	15.359324	16.147541	22.447832
276	14	1	0.091163382	15.191814	15.242039	21.261923
277	14	1	0.091163382	15.232353	15.332552	23.698986
278	14	1	0.090200476	16.723306	16.822896	22.37639
279	14	1	0.1250061	17.056967	17.807302	23.536463
280	14	3	-0.58036166	17.228745	17.135254	24.787548
281	14	4	0.10271815	13.284794	16.689049	22.460973
282	14	4	0.10271815	14.330879	17.831349	23.301947
283	14	4	0.10271815	14.309306	17.783238	21.523681
284	14	4	0.10271815	15.991992	14.496983	21.218371
285	14	4	0.10271815	15.217605	15.810897	20.327563
286	14	4	0.10271815	14.235562	14.712392	21.310372
287	14	4	0.10271815	14.275407	14.802278	23.717766
288	14	4	0.10271815	16.040312	14.598664	23.775795
289	14	4	0.10271815	15.26503	15.972908	24.585645
290	14	4	0.12002882	16.803229	17.376209	21.435781
291	14	4	0.12002882	17.51592	16.070019	22.329209
292	14	5	0.045879088	17.988249	18.330829	23.299983
293	14	5	0.045879088	16.281281	18.574134	23.623459
294	14	6	0.44087953	17.543131	17.735454	25.488985
295	15	1	0.091163382	28.692598	6.9766372	32.251506
296	15	2	-0.60549378	27.384863	7.4239159	32.831786
297	15	1	0.091163382	26.776397	8.4383965	31.915944
298	15	1	0.091163382	27.638338	8.0597275	34.163706
299	15	1	0.090200476	26.425204	6.2537771	32.978785
300	15	1	0.1250061	27.028563	4.9635744	33.604658
301	15	3	-0.58036166	27.407496	5.168907	34.969192
302	15	4	0.10271815	29.301634	7.8363526	31.956117
303	15	4	0.10271815	29.264846	6.3915467	32.977793
304	15	4	0.10271815	28.5307	6.356321	31.364779
305	15	4	0.10271815	25.764914	8.700704	32.240572
306	15	4	0.10271815	26.725183	8.0556273	30.89215
307	15	4	0.10271815	27.370639	9.3570685	31.90146
308	15	4	0.10271815	28.317287	8.9118636	34.062803
309	15	4	0.10271815	26.706028	8.4187585	34.610007
310	15	4	0.10271815	28.104801	7.3493004	34.852905
311	15	4	0.12002882	26.030953	5.9917212	31.992285
312	15	4	0.12002882	25.559752	6.5587646	33.574824
313	15	5	0.045879088	26.289649	4.1581029	33.554564
314	15	5	0.045879088	27.891123	4.6279505	33.021019
315	15	6	0.44087953	28.159847	4.6085441	35.235739
316	16	1	0.091163382	10.02923	14.959774	34.917691
317	16	2	-0.60549378	10.019456	13.742115	34.039519
318	16	1	0.091163382	8.6988854	13.669158	33.332803
319	16	1	0.091163382	10.200717	12.498881	34.86613
320	16	1	0.090200476	11.124545	13.814367	33.002393
321	16	1	0.1250061	12.503316	14.350696	33.491678
322	16	3	-0.58036166	12.994776	13.636678	34.633822
323	16	4	0.10271815	9.1804379	14.951404	35.608175
324	16	4	0.10271815	10.952775	15.009247	35.502417
325	16	4	0.10271815	9.9550301	15.870957	34.316418
326	16	4	0.10271815	8.581903	12.710199	32.818995
327	16	4	0.10271815	8.6089343	14.464208	32.586417
328	16	4	0.10271815	7.8677958	13.775381	34.036577
329	16	4	0.10271815	9.3105483	12.287345	35.466247
330	16	4	0.10271815	10.377889	11.629962	34.225132
331	16	4	0.10271815	11.061943	12.589942	35.534928
332	16	4	0.12002882	10.798067	14.441242	32.167091
333	16	4	0.12002882	11.282361	12.8236	32.565627
334	16	5	0.045879088	13.225534	14.264915	32.674162
335	16	5	0.045879088	12.425522	15.41591	33.729489
336	16	6	0.44087953	13.05904	12.676108	34.477999
337	17	1	0.091163382	12.756766	51.34223	51.986675
338	17	2	-0.60549378	13.539261	52.309079	52.829394
339	17	1	0.091163382	12.602897	53.350148	53.355246
340	17	1	0.091163382	14.581252	52.976961	51.995816
341	17	1	0.090200476	14.174882	51.594567	54.004712
342	17	1	0.1250061	15.27379	50.547028	53.664489
343	17	3	-0.58036166	16.53302	51.163473	53.371119
344	17	4	0.10271815	12.234486	51.864548	51.179395
345	17	4	0.10271815	13.408201	50.582986	51.543427
346	17	4	0.10271815	12.004654	50.823793	52.589035
347	17	4	0.10271815	13.12657	54.059882	54.0028
348	17	4	0.10271815	11.793412	52.893085	53.932409
349	17	4	0.10271815	12.15152	53.920345	52.537675
350	17	4	0.10271815	14.120291	53.574915	51.203818
351	17	4	0.10271815	15.19799	53.639131	52.611003
352	17	4	0.10271815	15.243489	52.236714	51.536722
353	17	4	0.12002882	13.390013	51.080709	54.567933
354	17	4	0.12002882	14.602809	52.328801	54.693966
355	17	5	0.045879088	15.403936	49.893732	54.532566
356	17	5	0.045879088	14.961839	49.902868	52.836823
357	17	6	0.44087953	17.280695	50.585957	53.613086
358	18	1	0.091163382	10.389302	4.8155561	20.380082
359	18	2	-0.60549378	9.4840485	6.0079944	20.390065
360	18	1	0.091163382	8.2852507	5.6916875	21.238334
361	18	1	0.091163382	9.0325451	6.2876886	18.984637
362	18	1	0.090200476	10.246359	7.1990001	20.957315
363	18	1	0.1250061	9.5640767	8.59146	20.81563
364	18	3	-0.58036166	8.2984257	8.6755526	21.481588
365	18	4	0.10271815	9.8573488	3.9280117	20.024302
366	18	4	0.10271815	11.246625	4.9829331	19.72109
367	18	4	0.10271815	10.764631	4.6031985	21.385727
368	18	4	0.10271815	7.5720847	6.5215445	21.242898
369	18	4	0.10271815	8.5740691	5.4898614	22.274258
370	18	4	0.10271815	7.7615613	4.8071891	20.86323
371	18	4	0.10271815	8.5510874	5.4081351	18.546604
372	18	4	0.10271815	8.313669	7.1122825	18.961154
373	18	4	0.10271815	9.8786986	6.5639555	18.348249
374	18	4	0.12002882	11.218835	7.2647434	20.460067
375	18	4	0.12002882	10.466145	7.0257723	22.015131
376	18	5	0.045879088	10.232483	9.3603563	21.214778
377	18	5	0.045879088	9.4322366	8.8286787	19.755615
378	18	6	0.44087953	7.7463394	9.393394	21.119652
379	19	1	0.091163382	5.5572921	47.935262	31.912839
380	19	2	-0.60549378	4.5744488	49.057765	31.755552
381	19	1	0.091163382	3.463046	48.869705	32.743835
382	19	1	0.091163382	4.0059125	49.047003	30.364263
383	19	1	0.090200476	5.2346361	50.394416	32.033074
384	19	1	0.1250061	6.6573846	50.594935	31.41691
385	19	3	-0.58036166	6.6706282	50.504479	29.984622
386	19	4	0.10271815	5.0571984	46.964698	31.84072
387	19	4	0.10271815	6.3293344	47.984519	31.139009
388	19	4	0.10271815	6.0470861	47.987337	32.889917
389	19	4	0.10271815	2.7313948	49.679456	32.664595
390	19	4	0.10271815	3.8540635	48.863153	33.765771
391	19	4	0.10271815	2.9451844	47.920556	32.575819
392	19	4	0.10271815	3.5383913	48.084297	30.136414
393	19	4	0.10271815	3.243483	49.82367	30.251229
394	19	4	0.10271815	4.7841528	49.233375	29.618008
395	19	4	0.12002882	5.3204864	50.525351	33.116021
396	19	4	0.12002882	4.5757255	51.198521	31.691699
397	19	5	0.045879088	7.0474851	51.57187	31.71809
398	19	5	0.045879088	7.3460966	49.854116	31.834219
399	19	6	0.44087953	6.6354346	51.370225	29.537034
400	20	1	0.091163382	29.053624	26.99821	49.588513
401	20	2	-0.60549378	27.833314	26.224785	49.979143
402	20	1	0.091163382	27.98908	25.780036	51.397552
403	20	1	0.091163382	27.705872	25.009978	49.103842
404	20	1	0.090200476	26.60255	27.101912	49.874358
405	20	1	0.1250061	26.294198	27.659426	48.452082
406	20	3	-0.58036166	25.848839	26.631267	47.559915
407	20	4	0.10271815	29.961021	26.426744	49.806108
408	20	4	0.10271815	29.048843	27.222433	48.517537
409	20	4	0.10271815	29.113019	27.942452	50.138211
410	20	4	0.10271815	27.122295	25.19382	51.717434
411	20	4	0.10271815	28.088038	26.641557	52.064843
412	20	4	0.10271815	28.883443	25.160098	51.511922
413	20	4	0.10271815	28.558931	24.337893	49.237552
414	20	4	0.10271815	26.791329	24.455476	49.334984
415	20	4	0.10271815	27.67065	25.287952	48.046117
416	20	4	0.12002882	26.719182	27.948563	50.557632
417	20	4	0.12002882	25.723429	26.558235	50.233312
418	20	5	0.045879088	25.508997	28.417115	48.533669
419	20	5	0.045879088	27.178044	28.154712	48.038812
420	20	6	0.44087953	25.130863	26.099138	47.950368
421	21	1	0.091163382	29.592438	6.0376889	46.272416
422	21	2	-0.60549378	29.441035	7.488212	45.917487
423	21	1	0.091163382	29.293666	7.607674	44.430504
424	21	1	0.091163382	30.673499	8.2350451	46.335878
425	21	1	0.090200476	28.207402	8.067444	46.585231
426	21	1	0.1250061	28.228936	8.0771196	48.13509
427	21	3	-0.58036166	29.114616	9.0838975	48.628049
428	21	4	0.10271815	30.430787	5.5921179	45.728426
429	21	4	0.10271815	29.778082	5.9008342	47.342043
430	21	4	0.10271815	28.698874	5.4712623	45.993152
431	21	4	0.10271815	29.259624	8.6563569	44.12003
432	21	4	0.10271815	28.381314	7.1113038	44.086237
433	21	4	0.10271815	30.136089	7.1342802	43.91717
434	21	4	0.10271815	31.559176	7.8397858	45.829287
435	21	4	0.10271815	30.582469	9.2984051	46.094489
436	21	4	0.10271815	30.836825	8.1539816	47.414784
437	21	4	0.12002882	27.32579	7.5071663	46.259446
438	21	4	0.12002882	28.054554	9.0973026	46.248608
439	21	5	0.045879088	27.219951	8.2846826	48.504081
440	21	5	0.045879088	28.521085	7.0947868	48.518443
441	21	6	0.44087953	29.192505	9.0793306	49.600163
442	22	1	0.091163382	20.978975	49.753251	15.492064
443	22	2	-0.60549378	20.088902	49.573917	14.303809
444	22	1	0.091163382	20.286746	50.726662	13.372279
445	22	1	0.091163382	18.650833	49.563103	14.733777
446	22	1	0.090200476	20.458875	48.297467	13.577774
447	22	1	0.1250061	20.014422	46.975732	14.264653
448	22	3	-0.58036166	18.600945	46.773205	14.144323
449	22	4	0.10271815	20.806165	50.727277	15.959718
450	22	4	0.10271815	20.808249	48.967891	16.23459
451	22	4	0.10271815	22.031078	49.718461	15.193472
452	22	4	0.10271815	20.095108	51.677284	13.879112
453	22	4	0.10271815	19.604168	50.665016	12.519298
454	22	4	0.10271815	21.312754	50.755711	12.993137
455	22	4	0.10271815	18.361446	50.523028	15.17205
456	22	4	0.10271815	17.996098	49.388304	13.874675
457	22	4	0.10271815	18.459345	48.772106	15.46518
458	22	4	0.12002882	21.545386	48.266163	13.452071
459	22	4	0.12002882	20.044372	48.31677	12.5653
460	22	5	0.045879088	20.534132	46.137929	13.790025
461	22	5	0.045879088	20.303748	46.982894	15.319891
462	22	6	0.44087953	18.292032	46.824141	13.220704
463	23	1	0.091163382	35.835283	39.262817	25.596485
464	23	2	-0.60549378	36.522646	39.058826	26.917546
465	23	1	0.091163382	35.702169	38.136466	27.76485
466	23	1	0.091163382	36.63713	40.383191	27.622201
467	23	1	0.090200476	37.888587	38.429716	26.703026
468	23	1	0.1250061	38.935163	39.327159	25.985923
469	23	3	-0.58036166	39.451885	40.321312	26.878011
470	23	4	0.10271815	34.812887	39.62503	25.740693
471	23	4	0.10271815	36.363986	40.006542	24.992638
472	23	4	0.10271815	35.788169	38.330429	25.025764
473	23	4	0.10271815	36.168203	37.984405	28.743103
474	23	4	0.10271815	35.595095	37.152541	27.29825
475	23	4	0.10271815	34.69883	38.537276	27.937913
476	23	4	0.10271815	35.648837	40.813441	27.81049
477	23	4	0.10271815	37.14747	40.275536	28.584104
478	23	4	0.10271815	37.199225	41.100378	27.016413
479	23	4	0.12002882	37.766218	37.515903	26.113737
480	23	4	0.12002882	38.308585	38.109474	27.661326
481	23	5	0.045879088	39.761956	38.700812	25.637507
482	23	5	0.045879088	38.495791	39.800048	25.102398
483	23	6	0.44087953	39.908724	39.929848	27.645569
484	24	1	0.091163382	43.917136	17.648631	28.239334
485	24	2	-0.60549378	43.325458	16.575658	27.378297
486	24	1	0.091163382	44.174194	16.414148	26.154766
487	24	1	0.091163382	41.943288	16.971556	26.950288
488	24	1	0.090200476	43.27064	15.25316	28.120499
489	24	1	0.1250061	42.86448	15.327945	29.620135
490	24	3	-0.58036166	41.585422	15.941257	29.826572
491	24	4	0.10271815	44.012432	18.584455	27.680371
492	24	4	0.10271815	43.28568	17.833949	29.113522
493	24	4	0.10271815	44.911151	17.355354	28.59035
494	24	4	0.10271815	43.750191	15.658813	25.486202
495	24	4	0.10271815	45.192218	16.11325	26.420057
496	24	4	0.10271815	44.224401	17.349768	25.589626
497	24	4	0.10271815	41.960444	17.917187	26.400034
498	24	4	0.10271815	41.516829	16.219591	26.279488
499	24	4	0.10271815	41.278691	17.077496	27.813063
500	24	4	0.12002882	44.250216	14.768366	28.068631
501	24	4	0.12002882	42.577047	14.578619	27.609413
502	24	5	0.045879088	42.837124	14.312596	30.027084
503	24	5	0.045879088	43.629661	15.865018	30.188761
504	24	6	0.44087953	41.293054	15.873741	30.754499
505	25	1	0.091163382	41.122589	46.324086	12.304326
506	25	2	-0.60549378	40.058045	45.270882	12.182051
507	25	1	0.091163382	40.681324	43.932047	12.474107
508	25	1	0.091163382	39.531207	45.271273	10.774268
509	25	1	0.090200476	38.916862	45.52032	13.16028
510	25	1	0.1250061	38.526444	47.015367	13.380057
511	25	3	-0.58036166	38.180566	47.676229	12.156168
512	25	4	0.10271815	41.933279	46.137657	11.593472
513	25	4	0.10271815	40.715318	47.317619	12.093825
514	25	4	0.10271815	41.556129	46.327248	13.308977
515	25	4	0.10271815	39.944351	43.126674	12.399726
516	25	4	0.10271815	41.11444	43.908448	13.478669
517	25	4	0.10271815	41.492176	43.714337	11.772386
518	25	4	0.10271815	40.323868	45.019884	10.063084
519	25	4	0.10271815	38.722193	44.543819	10.65767
520	25	4	0.10271815	39.138243	46.25679	10.506636
521	25	4	0.12002882	39.179757	45.099897	14.135687
522	25	4	0.12002882	38.027949	44.975224	12.828623
523	25	5	0.045879088	37.684369	47.073703	14.076327
524	25	5	0.045879088	39.355969	47.544889	13.858368
525	25	6	0.44087953	37.248349	47.544689	11.901691
526	26	1	0.091163382	43.690162	7.9754376	16.016817
527	26	2	-0.60549378	44.126549	8.0113035	14.581091
528	26	1	0.091163382	43.697915	6.7383707	13.923287
529	26	1	0.091163382	45.621381	8.1103277	14.520431
530	26	1	0.090200476	43.482857	9.1784465	13.850189
531	26	1	0.1250061	43.657994	10.572741	14.521687
532	26	3	-0.58036166	45.027986	10.990313	14.569943
533	26	4	0.10271815	44.117241	7.1108258	16.533868
534	26	4	0.10271815	44.012752	8.8713801	16.555811
535	26	4	0.10271815	42.601509	7.9008365	16.097803
536	26	4	0.10271815	43.971925	6.7368686	12.863946
537	26	4	0.10271815	42.613626	6.6115844	13.997644
538	26	4	0.10271815	44.171576	5.8749574	14.400204
539	26	4	0.10271815	46.086559	7.213763	14.941225
540	26	4	0.10271815	45.962543	8.2185698	13.486419
541	26	4	0.10271815	45.979881	8.9721614	15.091401
542	26	4	0.12002882	42.410684	8.9842296	13.750117
543	26	4	0.12002882	43.871675	9.2327523	12.828836
544	26	5	0.045879088	43.072939	11.315643	13.971146
545	26	5	0.045879088	43.248839	10.549632	15.536252
546	26	6	0.44087953	45.217457	11.548376	15.346962
547	27	1	0.091163382	40.818338	8.0062568	41.840816
548	27	2	-0.60549378	40.44837	9.2606372	41.106091
549	27	1	0.091163382	41.685452	9.8739123	40.537338
550	27	1	0.091163382	39.831893	10.231255	42.061357
551	27	1	0.090200476	39.481969	8.947289	39.980862
552	27	1	0.1250061	38.26324	8.0702311	40.374312
553	27	3	-0.58036166	37.39599	8.699773	41.323729
554	27	4	0.10271815	41.576881	8.2032901	42.604408
555	27	4	0.10271815	39.947851	7.5720745	42.341843
556	27	4	0.10271815	41.216989	7.2535968	41.153889
557	27	4	0.10271815	41.45381	10.812063	40.024014
558	27	4	0.10271815	42.16979	9.190895	39.832928
559	27	4	0.10271815	42.39985	10.103291	41.333776
560	27	4	0.10271815	40.542884	10.502892	42.847481
561	27	4	0.10271815	39.532895	11.149913	41.547589
562	27	4	0.10271815	38.951445	9.7960663	42.543755
563	27	4	0.12002882	40.017004	8.4211224	39.184508
564	27	4	0.12002882	39.111886	9.8771828	39.538567
565	27	5	0.045879088	37.691686	7.8413093	39.469764
566	27	5	0.045879088	38.607779	7.1114928	40.773563
567	27	6	0.44087953	36.614487	8.1471848	41.510782
568	28	1	0.091163382	16.095989	58.97089	45.53556
569	28	2	-0.60549378	16.353594	58.122225	44.32353
570	28	1	0.091163382	17.40543	58.78653	43.490086
571	28	1	0.091163382	15.084182	58.021808	43.526483
572	28	1	0.090200476	16.838313	56.735497	44.731045
573	28	1	0.1250061	16.065918	56.064944	45.902557
574	28	3	-0.58036166	14.654095	56.046548	45.695715
575	28	4	0.10271815	15.768239	59.97385	45.245838
576	28	4	0.10271815	15.303901	58.534279	46.151395
577	28	4	0.10271815	16.997811	59.06548	46.147981
578	28	4	0.10271815	17.645378	58.195882	42.600784