Title

10500 atoms
9500 bonds
16250 angles
24500 dihedrals
0 impropers

7 atom types
5 bond types
4 angle types
12 dihedral types
-2.924175262 57.07582474 xlo xhi
-6.086454391 53.91354561 ylo yhi
-8.267188072 51.73281193 zlo zhi
0.0 0.0 0.0 xy xz yz

Masses

1	12.01078
2	14.00672
3	15.99943
4	1.007947
5	1.007947
6	1.007947
7	35.4532


Pair Coeffs

1	0.10884061	3.3795318
2	0.16769152	3.206876
3	0.20947353	2.99716
4	0.0157	1.9599772
5	0.016409246	2.5832257
6	1.2326e-05	0.53453923
7	0.035591	4.477657

Bond Coeffs

1 harmonic	225.97114073395	1.477375101044
2 harmonic	357.8191474159	1.094206460752
3 harmonic	215.30139056395	1.533627603844
4 harmonic	258.9527804663	1.426323519316
5 harmonic	538.350794015	0.9752301008088


Angle Coeffs

1 harmonic	124.0884341307	113.2116558678
2 harmonic	66.75631831595	109.9380527584
3 harmonic	119.8958895535	112.8736161145
4 harmonic	36.776637850755	108.3543135269


Dihedral Coeffs

1 fourier 1	0.1113575199827	3	0
2 fourier 1	0.07484583104594	3	0
3 fourier 1	0.3153839995235	2	180
4 fourier 1	0.143904881748	3	0
5 fourier 1	0.4431584714139	3	0
6 fourier 1	0.1140296769156	1	0
7 fourier 1	0.1311347012225	3	0
8 fourier 1	0.436546671918	1	0
9 fourier 1	0.2279946533057	3	0
10 fourier 1	0.3636269884643333	3	0
11 fourier 1	-0.01533770820035	3	0
12 fourier 1	0.4191503124266	2	0


Atoms

1	1	1	0.091163382	11.199303	16.596419	53.1288
2	1	2	-0.60549378	10.480779	17.880989	53.439651
3	1	1	0.091163382	10.772606	18.276994	54.855042
4	1	1	0.091163382	9.0063673	17.67271	53.296795
5	1	1	0.090200476	10.964833	18.987465	52.520442
6	1	1	0.1250061	10.542194	18.871778	51.028461
7	1	3	-0.58036166	9.1707432	19.256225	50.845337
8	1	4	0.10271815	10.922877	15.810202	53.837843
9	1	4	0.10271815	10.948151	16.231132	52.128415
10	1	4	0.10271815	12.283989	16.729712	53.183379
11	1	4	0.10271815	10.30193	19.235048	55.095634
12	1	4	0.10271815	11.85022	18.378966	55.015168
13	1	4	0.10271815	10.390161	17.528914	55.55604
14	1	4	0.10271815	8.6266232	17.028992	54.095988
15	1	4	0.10271815	8.4774894	18.629388	53.345227
16	1	4	0.10271815	8.773278	17.200993	52.337403
17	1	4	0.12002882	12.057149	19.032001	52.566838
18	1	4	0.12002882	10.607178	19.951721	52.894044
19	1	5	0.045879088	11.174114	19.530604	50.42521
20	1	5	0.045879088	10.702386	17.852423	50.664401
21	1	6	0.44087953	9.0027523	20.192578	51.0601
22	2	1	0.091163382	39.732871	46.262059	48.502078
23	2	2	-0.60549378	39.979014	47.044964	49.757795
24	2	1	0.091163382	40.676746	46.170754	50.757146
25	2	1	0.091163382	38.654842	47.470765	50.323334
26	2	1	0.090200476	40.852709	48.261962	49.48319
27	2	1	0.1250061	40.446706	49.120088	48.242378
28	2	3	-0.58036166	39.125404	49.649057	48.387322
29	2	4	0.10271815	39.201605	45.331845	48.725114
30	2	4	0.10271815	39.10614	46.831656	47.80921
31	2	4	0.10271815	40.673604	46.009927	48.003335
32	2	4	0.10271815	40.83879	46.705713	51.697807
33	2	4	0.10271815	41.661835	45.866261	50.390854
34	2	4	0.10271815	40.092182	45.269828	50.966687
35	2	4	0.10271815	38.064275	46.601028	50.626774
36	2	4	0.10271815	38.789804	48.122339	51.191969
37	2	4	0.10271815	38.066621	48.011155	49.575496
38	2	4	0.12002882	41.890693	47.939548	49.356985
39	2	4	0.12002882	40.866604	48.908544	50.36582
40	2	5	0.045879088	41.155276	49.946175	48.129292
41	2	5	0.045879088	40.510244	48.519883	47.329688
42	2	6	0.44087953	38.802187	50.128698	47.602105
43	3	1	0.091163382	1.6120946	15.836726	6.8776739
44	3	2	-0.60549378	1.6259494	14.752651	7.9121661
45	3	1	0.091163382	0.37445396	14.842608	8.7361646
46	3	1	0.091163382	2.8176323	14.962754	8.7994844
47	3	1	0.090200476	1.6796127	13.379711	7.2623384
48	3	1	0.1250061	2.8506914	13.125261	6.2662286
49	3	3	-0.58036166	4.1176632	13.1514	6.9270486
50	3	4	0.10271815	1.5548134	16.819617	7.3550993
51	3	4	0.10271815	2.5357583	15.824535	6.2911701
52	3	4	0.10271815	0.75809129	15.726541	6.2025249
53	3	4	0.10271815	0.33533946	14.052052	9.4916654
54	3	4	0.10271815	-0.51731694	14.734504	8.1113863
55	3	4	0.10271815	0.3023026	15.805246	9.2513442
56	3	4	0.10271815	2.7360967	15.908611	9.3435395
57	3	4	0.10271815	2.9226527	14.146146	9.520185
58	3	4	0.10271815	3.7349859	15.014712	8.2053024
59	3	4	0.12002882	0.73938802	13.197353	6.7331767
60	3	4	0.12002882	1.7331591	12.61229	8.0404693
61	3	5	0.045879088	2.716873	12.137903	5.8140057
62	3	5	0.045879088	2.8340951	13.851397	5.4478532
63	3	6	0.44087953	4.7711089	12.558093	6.5122026
64	4	1	0.091163382	43.973069	28.58655	8.0055434
65	4	2	-0.60549378	44.022446	29.811311	7.1415347
66	4	1	0.091163382	43.547478	30.977516	7.9439932
67	4	1	0.091163382	43.107343	29.634616	5.9655404
68	4	1	0.090200476	45.452542	30.07072	6.6951323
69	4	1	0.1250061	45.971823	29.184179	5.5306613
70	4	3	-0.58036166	45.468469	29.645567	4.2680955
71	4	4	0.10271815	42.970319	28.437886	8.4174591
72	4	4	0.10271815	44.245949	27.691078	7.4390143
73	4	4	0.10271815	44.657521	28.686857	8.8533378
74	4	4	0.10271815	43.525453	31.888909	7.3388731
75	4	4	0.10271815	44.203067	31.151123	8.8026851
76	4	4	0.10271815	42.536941	30.802653	8.3254689
77	4	4	0.10271815	42.063365	29.546545	6.2812012
78	4	4	0.10271815	43.181195	30.481365	5.276444
79	4	4	0.10271815	43.358455	28.733275	5.3982544
80	4	4	0.12002882	46.12309	29.932086	7.5486153
81	4	4	0.12002882	45.563474	31.1165	6.3929349
82	4	5	0.045879088	47.064962	29.226217	5.5067873
83	4	5	0.045879088	45.694385	28.139298	5.6995869
84	4	6	0.44087953	45.693617	30.577855	4.0913305
85	5	1	0.091163382	52.15241	14.717153	50.642772
86	5	2	-0.60549378	51.991162	15.931875	49.767375
87	5	1	0.091163382	53.338923	16.432797	49.348974
88	5	1	0.091163382	51.286588	17.010536	50.548935
89	5	1	0.090200476	51.182542	15.583931	48.519115
90	5	1	0.1250061	49.935856	14.693509	48.763618
91	5	3	-0.58036166	49.057627	15.26167	49.726539
92	5	4	0.10271815	52.771168	14.937304	51.517963
93	5	4	0.10271815	51.179471	14.373605	51.006989
94	5	4	0.10271815	52.612329	13.891668	50.091105
95	5	4	0.10271815	53.241777	17.311474	48.704166
96	5	4	0.10271815	53.884735	15.663662	48.794169
97	5	4	0.10271815	53.938322	16.71484	50.21987
98	5	4	0.10271815	51.860099	17.293862	51.436687
99	5	4	0.10271815	51.135383	17.907027	49.940062
100	5	4	0.10271815	50.298529	16.678516	50.881786
101	5	4	0.12002882	51.820259	15.063466	47.798195
102	5	4	0.12002882	50.85494	16.501279	48.020678
103	5	5	0.045879088	49.396596	14.552785	47.82198
104	5	5	0.045879088	50.246706	13.700241	49.101372
105	5	6	0.44087953	48.314114	14.664755	49.931421
106	6	1	0.091163382	6.6051346	11.629045	14.017138
107	6	2	-0.60549378	6.7122954	10.167731	14.320669
108	6	1	0.091163382	6.5794396	9.9720842	15.792266
109	6	1	0.091163382	8.0568135	9.659965	13.89214
110	6	1	0.090200476	5.5977929	9.380011	13.649468
111	6	1	0.1250061	5.3444904	9.6910882	12.145393
112	6	3	-0.58036166	6.5079594	9.4478571	11.3463
113	6	4	0.10271815	7.4099791	12.184519	14.50802
114	6	4	0.10271815	6.6756094	11.809738	12.940258
115	6	4	0.10271815	5.6545073	12.030318	14.381249
116	6	4	0.10271815	6.4735335	8.9080256	16.024328
117	6	4	0.10271815	5.6844103	10.472651	16.1739
118	6	4	0.10271815	7.4468982	10.371734	16.326199
119	6	4	0.10271815	8.8565075	10.171746	14.43607
120	6	4	0.10271815	8.1466287	8.5868758	14.086306
121	6	4	0.10271815	8.2166958	9.8225945	12.821965
122	6	4	0.12002882	4.6628812	9.546178	14.193177
123	6	4	0.12002882	5.7911891	8.3086234	13.759086
124	6	5	0.045879088	4.5263702	9.058035	11.788726
125	6	5	0.045879088	5.0164026	10.727679	12.0224
126	6	6	0.44087953	6.8426007	8.5388821	11.459792
127	7	1	0.091163382	8.6780548	23.700459	34.67819
128	7	2	-0.60549378	8.2364762	23.027442	33.415601
129	7	1	0.091163382	7.6276523	21.696475	33.737247
130	7	1	0.091163382	9.4191217	22.802768	32.532778
131	7	1	0.090200476	7.1971959	23.864889	32.692468
132	7	1	0.1250061	7.5858861	25.340066	32.392745
133	7	3	-0.58036166	8.6065763	25.435956	31.38906
134	7	4	0.10271815	9.3613017	23.056195	35.239785
135	7	4	0.10271815	9.202863	24.634335	34.455163
136	7	4	0.10271815	7.8190666	23.931928	35.315254
137	7	4	0.10271815	7.2726709	21.206608	32.825487
138	7	4	0.10271815	6.7642725	21.808639	34.400032
139	7	4	0.10271815	8.3577782	21.032135	34.209325
140	7	4	0.10271815	10.142746	22.134175	33.008845
141	7	4	0.10271815	9.1047448	22.340608	31.592104
142	7	4	0.10271815	9.9189645	23.748701	32.303312
143	7	4	0.12002882	6.2691939	23.870983	33.272181
144	7	4	0.12002882	6.9231421	23.384573	31.748285
145	7	5	0.045879088	6.6926402	25.8693	32.047331
146	7	5	0.045879088	7.9083055	25.847261	33.307121
147	7	6	0.44087953	8.8519567	26.359406	31.193807
148	8	1	0.091163382	48.577218	54.255643	7.9428637
149	8	2	-0.60549378	47.505059	53.634229	7.0907593
150	8	1	0.091163382	46.696639	54.737649	6.4823109
151	8	1	0.091163382	46.602812	52.792258	7.9440945
152	8	1	0.090200476	48.099642	52.780452	5.9815741
153	8	1	0.1250061	49.353204	51.935754	6.3657016
154	8	3	-0.58036166	49.096074	51.05875	7.4695545
155	8	4	0.10271815	48.137045	54.891071	8.717308
156	8	4	0.10271815	49.188533	53.492856	8.4345281
157	8	4	0.10271815	49.232426	54.894128	7.3425901
158	8	4	0.10271815	45.897264	54.335437	5.8526134
159	8	4	0.10271815	47.328143	55.395818	5.8779079
160	8	4	0.10271815	46.239743	55.355897	7.2609681
161	8	4	0.10271815	46.09652	53.403473	8.6973375
162	8	4	0.10271815	45.834875	52.305298	7.3354578
163	8	4	0.10271815	47.167592	52.006507	8.4548843
164	8	4	0.12002882	48.370504	53.421063	5.1368606
165	8	4	0.12002882	47.332258	52.103162	5.5946797
166	8	5	0.045879088	49.659801	51.341519	5.4995775
167	8	5	0.045879088	50.193172	52.594633	6.6057402
168	8	6	0.44087953	48.365617	50.438423	7.2886246
169	9	1	0.091163382	7.6354897	24.090126	49.126005
170	9	2	-0.60549378	7.5138587	25.468051	48.542514
171	9	1	0.091163382	8.4647822	25.592716	47.390766
172	9	1	0.091163382	7.8701317	26.482649	49.589357
173	9	1	0.090200476	6.1044484	25.704081	48.036737
174	9	1	0.1250061	4.9733907	25.595276	49.102907
175	9	3	-0.58036166	4.9624678	26.724868	49.983835
176	9	4	0.10271815	8.6745703	23.861315	49.381437
177	9	4	0.10271815	7.0443326	23.995965	50.041952
178	9	4	0.10271815	7.2927636	23.329501	48.417993
179	9	4	0.10271815	8.4287918	26.598818	46.962104
180	9	4	0.10271815	8.216005	24.876852	46.601501
181	9	4	0.10271815	9.4930726	25.389917	47.705059
182	9	4	0.10271815	8.8996404	26.344924	49.9335
183	9	4	0.10271815	7.7645993	27.499039	49.198074
184	9	4	0.10271815	7.2159803	26.385963	50.461154
185	9	4	0.12002882	5.8891165	24.984498	47.241049
186	9	4	0.12002882	6.0418403	26.689639	47.565517
187	9	5	0.045879088	4.0082943	25.540819	48.590155
188	9	5	0.045879088	5.0756896	24.671426	49.680247
189	9	6	0.44087953	4.7800305	27.563457	49.520602
190	10	1	0.091163382	53.401589	12.430691	33.005304
191	10	2	-0.60549378	52.45461	12.579942	31.851962
192	10	1	0.091163382	52.498188	14.007921	31.396563
193	10	1	0.091163382	51.061711	12.257512	32.312191
194	10	1	0.090200476	52.858553	11.669897	30.702839
195	10	1	0.1250061	52.979436	10.154657	31.050828
196	10	3	-0.58036166	51.706271	9.5845675	31.364913
197	10	4	0.10271815	53.137698	13.12907	33.805251
198	10	4	0.10271815	53.366032	11.418222	33.418744
199	10	4	0.10271815	54.428635	12.659103	32.704818
200	10	4	0.10271815	51.838341	14.17009	30.538898
201	10	4	0.10271815	53.516011	14.298182	31.118937
202	10	4	0.10271815	52.189283	14.680045	32.202861
203	10	4	0.10271815	50.724134	12.97595	33.0653
204	10	4	0.10271815	50.358987	12.267973	31.473527
205	10	4	0.10271815	51.024699	11.263986	32.769163
206	10	4	0.12002882	53.82257	12.002667	30.306327
207	10	4	0.12002882	52.144127	11.773953	29.88061
208	10	5	0.045879088	53.399706	9.6260542	30.189874
209	10	5	0.045879088	53.673882	10.003389	31.88278
210	10	6	0.44087953	51.068406	9.6745729	30.632706
211	11	1	0.091163382	1.9334465	52.056065	20.009892
212	11	2	-0.60549378	1.2047847	50.986447	19.247907
213	11	1	0.091163382	0.69218561	51.577702	17.971476
214	11	1	0.091163382	0.044575743	50.491114	20.065923
215	11	1	0.090200476	2.1521565	49.846406	18.906599
216	11	1	0.1250061	2.9998723	49.26682	20.077338
217	11	3	-0.58036166	2.188257	48.646278	21.079614
218	11	4	0.10271815	1.2727599	52.900996	20.226381
219	11	4	0.10271815	2.3153536	51.672726	20.960937
220	11	4	0.10271815	2.7838799	52.43093	19.432373
221	11	4	0.10271815	0.097151594	50.849872	17.411581
222	11	4	0.10271815	1.5228358	51.897392	17.334996
223	11	4	0.10271815	0.072990768	52.457528	18.170958
224	11	4	0.10271815	-0.63603736	51.310267	20.317013
225	11	4	0.10271815	-0.51867571	49.723964	19.526002
226	11	4	0.10271815	0.38351249	50.052896	21.009519
227	11	4	0.12002882	2.8489223	50.188627	18.135438
228	11	4	0.12002882	1.5917104	49.023466	18.45277
229	11	5	0.045879088	3.6829913	48.516541	19.667799
230	11	5	0.045879088	3.6274499	50.043459	20.52485
231	11	6	0.44087953	2.0009442	49.231133	21.837213
232	12	1	0.091163382	48.14846	16.245936	15.33751
233	12	2	-0.60549378	49.064007	17.184237	16.075571
234	12	1	0.091163382	50.123601	16.381252	16.764402
235	12	1	0.091163382	48.281851	17.938507	17.115402
236	12	1	0.090200476	49.738483	18.126943	15.093271
237	12	1	0.1250061	48.816776	19.158416	14.384813
238	12	3	-0.58036166	48.37925	20.196068	15.274861
239	12	4	0.10271815	47.73953	15.487846	16.012319
240	12	4	0.10271815	47.312694	16.785814	14.88219
241	12	4	0.10271815	48.686333	15.728452	14.537388
242	12	4	0.10271815	50.831923	17.030348	17.288084
243	12	4	0.10271815	50.676069	15.765111	16.048553
244	12	4	0.10271815	49.683142	15.706635	17.504792
245	12	4	0.10271815	47.824435	17.251401	17.833694
246	12	4	0.10271815	48.93177	18.619876	17.672747
247	12	4	0.10271815	47.478862	18.52478	16.65848
248	12	4	0.12002882	50.221238	17.529784	14.313759
249	12	4	0.12002882	50.543094	18.671902	15.596174
250	12	5	0.045879088	49.368401	19.610634	13.555053
251	12	5	0.045879088	47.951646	18.650726	13.947682
252	12	6	0.44087953	49.119115	20.642107	15.727341
253	13	1	0.091163382	5.427509	15.215237	51.57908
254	13	2	-0.60549378	4.8047587	13.911093	51.983981
255	13	1	0.091163382	3.3719057	13.918309	51.543732
256	13	1	0.091163382	4.870173	13.759155	53.479052
257	13	1	0.090200476	5.5046058	12.747219	51.304641
258	13	1	0.1250061	7.0582378	12.76558	51.336961
259	13	3	-0.58036166	7.5612676	12.676054	52.667637
260	13	4	0.10271815	4.8780122	16.060265	52.004838
261	13	4	0.10271815	6.4696723	15.278453	51.906476
262	13	4	0.10271815	5.3990108	15.336617	50.492001
263	13	4	0.10271815	2.876389	12.977362	51.801353
264	13	4	0.10271815	3.3054155	14.049952	50.459509
265	13	4	0.10271815	2.8241423	14.747542	52.001572
266	13	4	0.10271815	4.3753207	14.596245	53.980742
267	13	4	0.10271815	4.3850675	12.832301	53.799834
268	13	4	0.10271815	5.9069484	13.725485	53.827262
269	13	4	0.12002882	5.1944363	12.713319	50.255861
270	13	4	0.12002882	5.1547164	11.80105	51.728468
271	13	5	0.045879088	7.4319375	11.915261	50.758524
272	13	5	0.045879088	7.4411869	13.669575	50.853815
273	13	6	0.44087953	8.5258794	12.810676	52.717671
274	14	1	0.091163382	18.485945	28.342054	15.707033
275	14	2	-0.60549378	17.63335	28.763142	16.860926
276	14	1	0.091163382	16.198498	28.471732	16.52054
277	14	1	0.091163382	17.814125	30.237103	17.068712
278	14	1	0.090200476	18.088771	28.009219	18.101269
279	14	1	0.1250061	17.20084	28.169684	19.370915
280	14	3	-0.58036166	15.962216	27.449565	19.25006
281	14	4	0.10271815	18.198681	28.884833	14.801406
282	14	4	0.10271815	19.54191	28.547628	15.906948
283	14	4	0.10271815	18.373591	27.272577	15.504836
284	14	4	0.10271815	15.528619	28.757212	17.337272
285	14	4	0.10271815	16.050522	27.408009	16.311051
286	14	4	0.10271815	15.89254	29.025502	15.627781
287	14	4	0.10271815	17.521713	30.797627	16.175628
288	14	4	0.10271815	17.20358	30.596006	17.902805
289	14	4	0.10271815	18.860104	30.471087	17.288865
290	14	4	0.12002882	19.099503	28.341463	18.35686
291	14	4	0.12002882	18.187394	26.942689	17.877496
292	14	5	0.045879088	17.747134	27.782249	20.236213
293	14	5	0.045879088	17.014737	29.228477	19.5749
294	14	6	0.44087953	16.100614	26.496942	19.093701
295	15	1	0.091163382	9.9197555	12.073746	43.043895
296	15	2	-0.60549378	8.7063384	11.431159	43.646049
297	15	1	0.091163382	9.1161591	10.629443	44.837108
298	15	1	0.091163382	8.0578059	10.523013	42.640872
299	15	1	0.090200476	7.7333641	12.496486	44.103556
300	15	1	0.1250061	7.1975952	13.436608	42.993026
301	15	3	-0.58036166	6.2108433	12.774637	42.195396
302	15	4	0.10271815	10.669819	11.320878	42.783351
303	15	4	0.10271815	9.6643078	12.624283	42.133431
304	15	4	0.10271815	10.373503	12.778605	43.747153
305	15	4	0.10271815	8.2407248	10.203974	45.33699
306	15	4	0.10271815	9.6460962	11.251699	45.564609
307	15	4	0.10271815	9.7777879	9.8060274	44.551587
308	15	4	0.10271815	8.7261534	9.7086614	42.345185
309	15	4	0.10271815	7.1466792	10.072873	43.04647
310	15	4	0.10271815	7.7749944	11.070359	41.736593
311	15	4	0.12002882	8.2214779	13.116895	44.861264
312	15	4	0.12002882	6.8805307	12.03576	44.611192
313	15	5	0.045879088	6.7477989	14.31429	43.466992
314	15	5	0.045879088	8.0097252	13.81038	42.362132
315	15	6	0.44087953	5.6488019	13.401991	41.703835
316	16	1	0.091163382	37.535038	31.720669	26.814797
317	16	2	-0.60549378	37.356143	32.041864	28.271477
318	16	1	0.091163382	38.676929	32.475243	28.831537
319	16	1	0.091163382	36.887209	30.806794	28.984044
320	16	1	0.090200476	36.355963	33.177361	28.431017
321	16	1	0.1250061	34.882293	32.80787	28.110554
322	16	3	-0.58036166	34.267442	32.175665	29.239342
323	16	4	0.10271815	38.294559	30.944846	26.678717
324	16	4	0.10271815	36.606491	31.340053	26.378658
325	16	4	0.10271815	37.845812	32.607601	26.254385
326	16	4	0.10271815	38.586888	32.743423	29.888542
327	16	4	0.10271815	39.057136	33.348048	28.292143
328	16	4	0.10271815	39.419005	31.676223	28.741107
329	16	4	0.10271815	37.60968	29.993103	28.869002
330	16	4	0.10271815	36.735296	31.002769	30.049784
331	16	4	0.10271815	35.936146	30.460732	28.568096
332	16	4	0.12002882	36.650293	34.001849	27.774603
333	16	4	0.12002882	36.391971	33.580518	29.447608
334	16	5	0.045879088	34.325306	33.719049	27.87221
335	16	5	0.045879088	34.829247	32.157609	27.232125
336	16	6	0.44087953	34.111567	32.798777	29.97319
337	17	1	0.091163382	15.985808	33.191292	7.5386196
338	17	2	-0.60549378	16.906554	34.19507	6.9146448
339	17	1	0.091163382	17.230457	35.244253	7.9329443
340	17	1	0.091163382	16.219008	34.852624	5.7500023
341	17	1	0.090200476	18.189491	33.5375	6.4510655
342	17	1	0.1250061	17.994312	32.337298	5.4894161
343	17	3	-0.58036166	19.25364	32.025981	4.9009138
344	17	4	0.10271815	15.091754	33.684897	7.9314417
345	17	4	0.10271815	15.662949	32.43892	6.8126816
346	17	4	0.10271815	16.468904	32.676835	8.3748263
347	17	4	0.10271815	17.942518	35.972893	7.5337696
348	17	4	0.10271815	17.660447	34.801939	8.8366902
349	17	4	0.10271815	16.327962	35.788732	8.2267672
350	17	4	0.10271815	15.312642	35.371871	6.0758448
351	17	4	0.10271815	16.876218	35.586882	5.2743632
352	17	4	0.10271815	15.928972	34.1172	4.9934861
353	17	4	0.12002882	18.775034	33.19634	7.3101568
354	17	4	0.12002882	18.807971	34.281921	5.940569
355	17	5	0.045879088	17.608916	31.469941	6.0338867
356	17	5	0.045879088	17.283807	32.588358	4.6960434
357	17	6	0.44087953	19.60791	32.771149	4.3809927
358	18	1	0.091163382	53.863325	20.563793	19.297841
359	18	2	-0.60549378	54.89316	19.487458	19.107891
360	18	1	0.091163382	54.445691	18.601322	17.989312
361	18	1	0.091163382	54.990468	18.676033	20.365098
362	18	1	0.090200476	56.232839	20.113711	18.74796
363	18	1	0.1250061	56.887641	20.973465	19.869269
364	18	3	-0.58036166	57.484584	20.147793	20.883398
365	18	4	0.10271815	52.887101	20.126145	19.5275
366	18	4	0.10271815	54.139562	21.235745	20.11605
367	18	4	0.10271815	53.765588	21.171284	18.393024
368	18	4	0.10271815	55.154977	17.783856	17.828221
369	18	4	0.10271815	54.35617	19.170637	17.059175
370	18	4	0.10271815	53.469205	18.162076	18.21478
371	18	4	0.10271815	54.030223	18.204926	20.595925
372	18	4	0.10271815	55.743136	17.888154	20.264988
373	18	4	0.10271815	55.270333	19.308519	21.21299
374	18	4	0.12002882	56.097507	20.75428	17.871236
375	18	4	0.12002882	56.943302	19.341344	18.43816
376	18	5	0.045879088	57.65677	21.615133	19.428824
377	18	5	0.045879088	56.146598	21.642842	20.316575
378	18	6	0.44087953	58.357511	19.79816	20.624883
379	19	1	0.091163382	3.9305118	6.2460613	47.984452
380	19	2	-0.60549378	5.4039288	6.5051192	47.912197
381	19	1	0.091163382	5.8782607	6.1383903	46.538491
382	19	1	0.091163382	6.0949308	5.6292892	48.914266
383	19	1	0.090200476	5.6664294	7.9728901	48.204103
384	19	1	0.1250061	7.1595967	8.4011489	48.272424
385	19	3	-0.58036166	7.7962083	8.3211249	46.992574
386	19	4	0.10271815	3.7148896	5.1920813	47.784643
387	19	4	0.10271815	3.5377398	6.4922631	48.975616
388	19	4	0.10271815	3.3933201	6.8468618	47.244349
389	19	4	0.10271815	6.9631219	6.2550491	46.456308
390	19	4	0.10271815	5.4030967	6.7663807	45.778799
391	19	4	0.10271815	5.6367534	5.09633	46.308117
392	19	4	0.10271815	5.823341	4.5804766	48.760905
393	19	4	0.10271815	7.1820426	5.7067823	48.816948
394	19	4	0.10271815	5.8113104	5.9028542	49.935055
395	19	4	0.12002882	5.1969808	8.2376862	49.156356
396	19	4	0.12002882	5.1618797	8.5998124	47.462692
397	19	5	0.045879088	7.2176462	9.4323754	48.633657
398	19	5	0.045879088	7.6992732	7.7839136	48.997035
399	19	6	0.44087953	8.7585807	8.4693617	47.047062
400	20	1	0.091163382	34.018831	24.341705	27.149637
401	20	2	-0.60549378	35.153818	25.163968	27.679172
402	20	1	0.091163382	36.328504	25.007887	26.771421
403	20	1	0.091163382	35.536225	24.659901	29.039507
404	20	1	0.090200476	34.798987	26.641469	27.743881
405	20	1	0.1250061	33.403294	26.997154	28.331599
406	20	3	-0.58036166	33.234155	26.491332	29.662263
407	20	4	0.10271815	34.317591	23.292825	27.060854
408	20	4	0.10271815	33.157523	24.390473	27.822731
409	20	4	0.10271815	33.71031	24.692829	26.160285
410	20	4	0.10271815	37.204089	25.517094	27.185366
411	20	4	0.10271815	36.126821	25.446379	25.789416
412	20	4	0.10271815	36.574831	23.950303	26.636794
413	20	4	0.10271815	35.802071	23.59931	28.997555
414	20	4	0.10271815	36.401463	25.206516	29.42663
415	20	4	0.10271815	34.711006	24.772894	29.74911
416	20	4	0.12002882	34.863648	27.072341	26.74016
417	20	4	0.12002882	35.565684	27.173853	28.314872
418	20	5	0.045879088	33.295243	28.085959	28.342316
419	20	5	0.045879088	32.612898	26.608596	27.682304
420	20	6	0.44087953	32.410588	26.797731	30.08527
421	21	1	0.091163382	11.870195	40.368829	24.559863
422	21	2	-0.60549378	10.629529	41.053319	24.063792
423	21	1	0.091163382	10.867965	42.530251	24.031959
424	21	1	0.091163382	9.5028323	40.781002	25.007594
425	21	1	0.090200476	10.294371	40.562525	22.663643
426	21	1	0.1250061	10.044297	39.028723	22.526088
427	21	3	-0.58036166	8.8490707	38.620582	23.208573
428	21	4	0.10271815	12.190934	40.782614	25.520694
429	21	4	0.10271815	11.699381	39.296391	24.693992
430	21	4	0.10271815	12.694535	40.47771	23.848598
431	21	4	0.10271815	10.035863	43.054752	23.552594
432	21	4	0.10271815	11.777911	42.768936	23.473105
433	21	4	0.10271815	10.982579	42.925787	25.045717
434	21	4	0.10271815	9.6787685	41.263146	25.973966
435	21	4	0.10271815	8.5539752	41.144266	24.601393
436	21	4	0.10271815	9.3959409	39.706104	25.182102
437	21	4	0.12002882	11.11712	40.823975	21.991322
438	21	4	0.12002882	9.42105	41.095343	22.275441
439	21	5	0.045879088	9.9485856	38.78083	21.464636
440	21	5	0.045879088	10.903584	38.463385	22.899325
441	21	6	0.44087953	8.0804354	39.158893	22.94302
442	22	1	0.091163382	25.640104	10.518703	4.5240921
443	22	2	-0.60549378	24.401383	9.841634	4.0195054
444	22	1	0.091163382	23.605099	9.3450266	5.1897508
445	22	1	0.091163382	24.781015	8.6690402	3.1581742
446	22	1	0.090200476	23.549881	10.827786	3.2354927
447	22	1	0.1250061	24.277985	11.652086	2.129623
448	22	3	-0.58036166	24.815936	10.825413	1.0907105
449	22	4	0.10271815	26.248808	9.8299128	5.1176715
450	22	4	0.10271815	26.256559	10.874472	3.6930084
451	22	4	0.10271815	25.379434	11.378194	5.1490849
452	22	4	0.10271815	22.656662	8.9103925	4.8598301
453	22	4	0.10271815	23.377101	10.161955	5.8810776
454	22	4	0.10271815	24.153852	8.5750252	5.7404375
455	22	4	0.10271815	25.313966	7.9114991	3.7407401
456	22	4	0.10271815	23.893313	8.1995583	2.723594
457	22	4	0.10271815	25.435238	8.9755327	2.3363824
458	22	4	0.12002882	23.096573	11.537689	3.9339495
459	22	4	0.12002882	22.710824	10.300877	2.771121
460	22	5	0.045879088	23.554909	12.343229	1.6860336
461	22	5	0.045879088	25.06825	12.271973	2.5638014
462	22	6	0.44087953	25.757332	10.607144	1.2219867
463	23	1	0.091163382	51.864309	4.7991484	27.549112
464	23	2	-0.60549378	50.562658	5.5223227	27.706449
465	23	1	0.091163382	50.637732	6.401968	28.926477
466	23	1	0.091163382	49.480615	4.4952714	27.88945
467	23	1	0.090200476	50.285249	6.3406068	26.462793
468	23	1	0.1250061	49.025431	7.2426504	26.543071
469	23	3	-0.58036166	49.373741	8.6328912	26.441004
470	23	4	0.10271815	52.06562	4.1718477	28.422756
471	23	4	0.10271815	51.841378	4.1466606	26.671033
472	23	4	0.10271815	52.695675	5.5023986	27.441597
473	23	4	0.10271815	49.680247	6.8955749	29.118485
474	23	4	0.10271815	51.399212	7.1784347	28.805916
475	23	4	0.10271815	50.893106	5.8142191	29.813395
476	23	4	0.10271815	49.645972	3.9173558	28.803759
477	23	4	0.10271815	48.494782	4.9665925	27.946734
478	23	4	0.10271815	49.455538	3.8011286	27.043977
479	23	4	0.12002882	50.156231	5.6633639	25.613093
480	23	4	0.12002882	51.147475	6.9709033	26.22493
481	23	5	0.045879088	48.354406	6.9903249	25.716429
482	23	5	0.045879088	48.454218	7.0485008	27.455926
483	23	6	0.44087953	49.631329	9.0300709	27.293646
484	24	1	0.091163382	15.89799	30.699553	39.273295
485	24	2	-0.60549378	15.963039	31.080964	37.824795
486	24	1	0.091163382	14.940815	30.290508	37.064157
487	24	1	0.091163382	17.334874	30.761585	37.302933
488	24	1	0.090200476	15.664189	32.569215	37.692769
489	24	1	0.1250061	16.11793	33.259943	36.370378
490	24	3	-0.58036166	15.625274	32.609155	35.193624
491	24	4	0.10271815	16.097209	29.631617	39.404097
492	24	4	0.10271815	16.644374	31.252375	39.851735
493	24	4	0.10271815	14.909768	30.916042	39.690237
494	24	4	0.10271815	14.919437	30.592015	36.012528
495	24	4	0.10271815	13.941225	30.444982	37.481585
496	24	4	0.10271815	15.16257	29.219964	37.109425
497	24	4	0.10271815	17.559782	29.697123	37.419646
498	24	4	0.10271815	17.417893	31.018572	36.242578
499	24	4	0.10271815	18.099788	31.316857	37.854176
500	24	4	0.12002882	16.141356	33.105094	38.518865
501	24	4	0.12002882	14.589653	32.736895	37.813368
502	24	5	0.045879088	15.767765	34.296575	36.378407
503	24	5	0.045879088	17.210337	33.305953	36.327739
504	24	6	0.44087953	15.802977	33.130815	34.389017
505	25	1	0.091163382	17.598457	47.302465	29.665725
506	25	2	-0.60549378	18.571537	46.169133	29.51448
507	25	1	0.091163382	19.603137	46.273651	30.60153
508	25	1	0.091163382	19.263186	46.295905	28.1827
509	25	1	0.090200476	17.8527	44.831014	29.627275
510	25	1	0.1250061	16.675444	44.588008	28.634217
511	25	3	-0.58036166	17.135038	44.496379	27.281702
512	25	4	0.10271815	18.121343	48.26354	29.651175
513	25	4	0.10271815	16.880959	47.315269	28.839698
514	25	4	0.10271815	17.048509	47.229562	30.608876
515	25	4	0.10271815	20.35296	45.481353	30.515976
516	25	4	0.10271815	19.146671	46.207609	31.593783
517	25	4	0.10271815	20.128942	47.231903	30.550859
518	25	4	0.10271815	19.824228	47.233438	28.123078
519	25	4	0.10271815	19.959537	45.468764	28.014715
520	25	4	0.10271815	18.537744	46.305351	27.363594
521	25	4	0.12002882	17.459099	44.72065	30.642257
522	25	4	0.12002882	18.57046	44.014082	29.505894
523	25	5	0.045879088	16.178689	43.650684	28.902454
524	25	5	0.045879088	15.923947	45.378151	28.724859
525	25	6	0.44087953	16.431221	44.235506	26.65906
526	26	1	0.091163382	41.128316	7.1435058	33.49436
527	26	2	-0.60549378	39.915884	6.6163141	34.208474
528	26	1	0.091163382	40.364819	5.6463444	35.258708
529	26	1	0.091163382	39.022701	5.9012091	33.240139
530	26	1	0.090200476	39.16414	7.7466512	34.896719
531	26	1	0.1250061	38.835449	9.0000832	34.031982
532	26	3	-0.58036166	38.020217	8.7017471	32.888486
533	26	4	0.10271815	41.661639	6.3368326	32.982376
534	26	4	0.10271815	40.858293	7.895031	32.746305
535	26	4	0.10271815	41.825037	7.6089764	34.198067
536	26	4	0.10271815	39.525509	5.3299457	35.885401
537	26	4	0.10271815	41.102672	6.1095768	35.920734
538	26	4	0.10271815	40.822368	4.760834	34.80726
539	26	4	0.10271815	39.540563	5.0460833	32.795315
540	26	4	0.10271815	38.120427	5.5363464	33.740208
541	26	4	0.10271815	38.711524	6.5627956	32.426038
542	26	4	0.12002882	39.743843	8.0837882	35.761344
543	26	4	0.12002882	38.229139	7.3643649	35.317338
544	26	5	0.045879088	38.310928	9.722777	34.664342
545	26	5	0.045879088	39.758282	9.4912583	33.708854
546	26	6	0.44087953	38.545759	8.4467691	32.107537
547	27	1	0.091163382	7.6807624	60.952435	48.739414
548	27	2	-0.60549378	7.1494073	59.71056	48.095675
549	27	1	0.091163382	7.1324068	59.916434	46.612306
550	27	1	0.091163382	5.7407659	59.477291	48.560405
551	27	1	0.090200476	8.028937	58.517203	48.429227
552	27	1	0.1250061	8.3369923	58.286943	49.937372
553	27	3	-0.58036166	7.1512008	58.044543	50.701947
554	27	4	0.10271815	7.0818824	61.820111	48.446541
555	27	4	0.10271815	7.6488739	60.867639	49.829865
556	27	4	0.10271815	8.7167776	61.133609	48.437519
557	27	4	0.10271815	6.824429	59.001288	46.097574
558	27	4	0.10271815	8.1214094	60.208144	46.246157
559	27	4	0.10271815	6.4316428	60.711293	46.339507
560	27	4	0.10271815	5.0812453	60.279207	48.215075
561	27	4	0.10271815	5.354445	58.527474	48.178439
562	27	4	0.10271815	5.6878918	59.448495	49.652953
563	27	4	0.12002882	8.9897609	58.633184	47.918687
564	27	4	0.12002882	7.5754201	57.605805	48.028026
565	27	5	0.045879088	9.0047026	57.425308	50.032434
566	27	5	0.045879088	8.8763684	59.145908	50.347905
567	27	6	0.44087953	6.6336423	57.288136	50.368662
568	28	1	0.091163382	45.635777	48.469419	55.113292
569	28	2	-0.60549378	44.783988	49.574294	55.658703
570	28	1	0.091163382	43.705564	48.982754	56.513567
571	28	1	0.091163382	44.160805	50.308056	54.507389
572	28	1	0.090200476	45.608139	50.523734	56.516986
573	28	1	0.1250061	46.865702	51.144824	55.840135
574	28	3	-0.58036166	46.512609	52.05627	54.796634
575	28	4	0.10271815	45.033069	47.77575	54.519281
576	28	4	0.10271815	46.418915	48.867521	54.460988
577	28	4	0.10271815	46.116323	47.907906	55.920177
578	28	4	0.10271815	43.053918	49.764695	56.915083