Title

10800 atoms
9750 bonds
16050 angles
24600 dihedrals
0 impropers

7 atom types
5 bond types
4 angle types
12 dihedral types
-2.859773636 57.14022636 xlo xhi
-4.460359216 55.53964078 ylo yhi
-11.79676414 48.20323586 zlo zhi
0.0 0.0 0.0 xy xz yz

Masses

1	12.01078
2	14.00672
3	15.99943
4	1.007947
5	1.007947
6	1.007947
7	35.4532


Pair Coeffs

1	0.10884061	3.3795318
2	0.16769152	3.206876
3	0.20947353	2.99716
4	0.0157	1.9599772
5	0.016409246	2.5832257
6	1.2326e-05	0.53453923
7	0.035591	4.477657

Bond Coeffs

1 harmonic	225.97114073395	1.477375101044
2 harmonic	357.8191474159	1.094206460752
3 harmonic	215.30139056395	1.533627603844
4 harmonic	258.9527804663	1.426323519316
5 harmonic	538.350794015	0.9752301008088


Angle Coeffs

1 harmonic	124.0884341307	113.2116558678
2 harmonic	66.75631831595	109.9380527584
3 harmonic	119.8958895535	112.8736161145
4 harmonic	36.776637850755	108.3543135269


Dihedral Coeffs

1 fourier 1	0.1113575199827	3	0
2 fourier 1	0.07484583104594	3	0
3 fourier 1	0.3153839995235	2	180
4 fourier 1	0.143904881748	3	0
5 fourier 1	0.4431584714139	3	0
6 fourier 1	0.1140296769156	1	0
7 fourier 1	0.1311347012225	3	0
8 fourier 1	0.436546671918	1	0
9 fourier 1	0.2279946533057	3	0
10 fourier 1	0.3636269884643333	3	0
11 fourier 1	-0.01533770820035	3	0
12 fourier 1	0.4191503124266	2	0


Atoms

1	1	1	0.091163382	8.8389283	7.6513904	40.711937
2	1	2	-0.60549378	8.9074945	9.0632892	41.20563
3	1	1	0.091163382	10.345614	9.4810247	41.299119
4	1	1	0.091163382	8.2689506	9.1277784	42.564259
5	1	1	0.090200476	8.1510496	9.9490958	40.225816
6	1	1	0.1250061	7.8553599	11.400073	40.706697
7	1	3	-0.58036166	9.0575624	12.157515	40.889082
8	1	4	0.10271815	9.3794525	6.9759452	41.381936
9	1	4	0.10271815	7.800523	7.3099458	40.662732
10	1	4	0.10271815	9.2719197	7.5665307	39.710636
11	1	4	0.10271815	10.432228	10.51196	41.655436
12	1	4	0.10271815	10.833709	9.4186157	40.321798
13	1	4	0.10271815	10.895666	8.8384122	41.993222
14	1	4	0.10271815	8.7333858	8.4116578	43.24892
15	1	4	0.10271815	8.3632845	10.128063	42.997642
16	1	4	0.10271815	7.2019261	8.8935971	42.501736
17	1	4	0.12002882	7.1910292	9.4771361	39.995804
18	1	4	0.12002882	8.6926615	9.9988717	39.276359
19	1	5	0.045879088	7.2261065	11.899686	39.963923
20	1	5	0.045879088	7.2784734	11.381365	41.636291
21	1	6	0.44087953	8.8982838	13.016964	41.321597
22	2	1	0.091163382	42.209268	13.194178	33.983393
23	2	2	-0.60549378	40.726619	13.43272	34.027905
24	2	1	0.091163382	40.026202	12.183819	33.590655
25	2	1	0.091163382	40.366149	14.526621	33.071899
26	2	1	0.090200476	40.276623	13.797733	35.433021
27	2	1	0.1250061	41.189432	14.819748	36.178939
28	2	3	-0.58036166	41.272049	16.073692	35.495422
29	2	4	0.10271815	42.518167	12.858381	32.988851
30	2	4	0.10271815	42.761445	14.10794	34.223039
31	2	4	0.10271815	42.500229	12.415376	34.694798
32	2	4	0.10271815	38.940439	12.319417	33.595543
33	2	4	0.10271815	40.278163	11.343031	34.244015
34	2	4	0.10271815	40.326834	11.911758	32.574344
35	2	4	0.10271815	40.633879	14.244581	32.049127
36	2	4	0.10271815	39.289854	14.721885	33.099365
37	2	4	0.10271815	40.892935	15.453089	33.319774
38	2	4	0.12002882	40.222826	12.888751	36.03977
39	2	4	0.12002882	39.255693	14.190248	35.402651
40	2	5	0.045879088	40.794034	14.991744	37.184606
41	2	5	0.045879088	42.192469	14.402647	36.310229
42	2	6	0.44087953	40.436826	16.57559	35.535371
43	3	1	0.091163382	14.235822	10.935613	49.718533
44	3	2	-0.60549378	13.427031	9.6749818	49.682307
45	3	1	0.091163382	12.974256	9.3532217	51.073365
46	3	1	0.091163382	14.30205	8.5517401	49.202895
47	3	1	0.090200476	12.208241	9.8177463	48.773413
48	3	1	0.1250061	12.459201	10.471314	47.380948
49	3	3	-0.58036166	13.433118	9.7468591	46.611629
50	3	4	0.10271815	15.079572	10.824535	50.406313
51	3	4	0.10271815	14.63719	11.166143	48.727045
52	3	4	0.10271815	13.628473	11.781734	50.05394
53	3	4	0.10271815	12.409065	8.4164578	51.09129
54	3	4	0.10271815	12.339399	10.149282	51.474032
55	3	4	0.10271815	13.833408	9.2389071	51.741261
56	3	4	0.10271815	15.163056	8.4139669	49.863939
57	3	4	0.10271815	13.744814	7.6104361	49.176021
58	3	4	0.10271815	14.685204	8.7445283	48.196263
59	3	4	0.12002882	11.439815	10.407954	49.281802
60	3	4	0.12002882	11.761693	8.8326412	48.607721
61	3	5	0.045879088	11.514438	10.499717	46.829672
62	3	5	0.045879088	12.776343	11.511242	47.504473
63	3	6	0.44087953	13.192369	8.8080955	46.502705
64	4	1	0.091163382	12.680984	33.219917	19.460115
65	4	2	-0.60549378	11.67552	34.167376	20.049191
66	4	1	0.091163382	12.391911	35.112457	20.963042
67	4	1	0.091163382	10.674109	33.382659	20.846708
68	4	1	0.090200476	10.981985	34.964592	18.946023
69	4	1	0.1250061	10.255328	34.111898	17.869632
70	4	3	-0.58036166	9.1296959	33.427284	18.4223
71	4	4	0.10271815	13.266022	32.732522	20.245907
72	4	4	0.10271815	12.191833	32.43331	18.877646
73	4	4	0.10271815	13.379122	33.746939	18.802742
74	4	4	0.10271815	12.897383	34.566476	21.765344
75	4	4	0.10271815	11.697329	35.827055	21.414919
76	4	4	0.10271815	13.15816	35.673163	20.419204
77	4	4	0.10271815	11.140395	32.944932	21.734548
78	4	4	0.10271815	9.8421574	34.018602	21.164074
79	4	4	0.10271815	10.252935	32.567105	20.251076
80	4	4	0.12002882	11.71822	35.59149	18.433923
81	4	4	0.12002882	10.254034	35.656583	19.38022
82	4	5	0.045879088	9.9117929	34.767685	17.063894
83	4	5	0.045879088	10.951971	33.395412	17.423959
84	4	6	0.44087953	8.9530247	32.569947	17.992359
85	5	1	0.091163382	21.042414	11.303722	24.146137
86	5	2	-0.60549378	21.947088	11.567117	25.315709
87	5	1	0.091163382	22.53902	12.942154	25.183613
88	5	1	0.091163382	23.050997	10.557002	25.295181
89	5	1	0.090200476	21.169033	11.471684	26.619973
90	5	1	0.1250061	20.440991	10.121222	26.857491
91	5	3	-0.58036166	19.639153	10.21445	28.040948
92	5	4	0.10271815	21.53785	11.546534	23.201218
93	5	4	0.10271815	20.777497	10.24287	24.104903
94	5	4	0.10271815	20.117304	11.883669	24.217699
95	5	4	0.10271815	23.179367	13.17901	26.038685
96	5	4	0.10271815	21.75611	13.703425	25.11426
97	5	4	0.10271815	23.157997	13.01455	24.284215
98	5	4	0.10271815	23.645246	10.644462	24.380572
99	5	4	0.10271815	23.718793	10.689144	26.151848
100	5	4	0.10271815	22.650647	9.5390427	25.322907
101	5	4	0.12002882	20.412276	12.261422	26.650305
102	5	4	0.12002882	21.839466	11.652626	27.465591
103	5	5	0.045879088	19.79026	9.8901629	26.008699
104	5	5	0.045879088	21.162896	9.3053633	26.960027
105	5	6	0.44087953	20.149708	10.154533	28.869705
106	6	1	0.091163382	24.52754	2.5430021	29.202871
107	6	2	-0.60549378	23.061347	2.8730872	29.140522
108	6	1	0.091163382	22.300444	1.6421928	28.752251
109	6	1	0.091163382	22.856545	3.9035895	28.080583
110	6	1	0.090200476	22.559485	3.3991343	30.478001
111	6	1	0.1250061	23.46314	4.4643843	31.173787
112	6	3	-0.58036166	23.718233	5.6156647	30.356555
113	6	4	0.10271815	24.876046	2.1403538	28.246989
114	6	4	0.10271815	25.121298	3.4395733	29.405117
115	6	4	0.10271815	24.739938	1.8069917	29.984193
116	6	4	0.10271815	21.229243	1.8520917	28.676367
117	6	4	0.10271815	22.448282	0.84173337	29.483483
118	6	4	0.10271815	22.636759	1.2767531	27.777245
119	6	4	0.10271815	23.052599	3.4875649	27.087719
120	6	4	0.10271815	21.833546	4.2918169	28.086903
121	6	4	0.10271815	23.549979	4.7388312	28.217726
122	6	4	0.12002882	22.439938	2.5631627	31.173809
123	6	4	0.12002882	21.55956	3.8252917	30.352201
124	6	5	0.045879088	22.977679	4.7851017	32.100477
125	6	5	0.045879088	24.414451	4.007093	31.4622
126	6	6	0.44087953	22.954464	6.2181693	30.287735
127	7	1	0.091163382	28.492589	35.798032	13.016098
128	7	2	-0.60549378	28.919582	37.044635	12.296762
129	7	1	0.091163382	27.915609	38.12259	12.559601
130	7	1	0.091163382	28.968306	36.766336	10.817457
131	7	1	0.090200476	30.279071	37.499671	12.798355
132	7	1	0.1250061	31.384723	36.414776	12.714977
133	7	3	-0.58036166	32.667565	36.988754	12.981255
134	7	4	0.10271815	27.461989	35.530195	12.764264
135	7	4	0.10271815	29.133279	34.950278	12.755114
136	7	4	0.10271815	28.555341	35.936787	14.099655
137	7	4	0.10271815	28.169186	39.03486	12.011193
138	7	4	0.10271815	27.878733	38.364937	13.625995
139	7	4	0.10271815	26.915333	37.803655	12.25135
140	7	4	0.10271815	27.989106	36.454988	10.441266
141	7	4	0.10271815	29.27809	37.650471	10.252098
142	7	4	0.10271815	29.671953	35.96101	10.585898
143	7	4	0.12002882	30.197408	37.831604	13.837796
144	7	4	0.12002882	30.608375	38.37388	12.228614
145	7	5	0.045879088	31.184649	35.61197	13.431051
146	7	5	0.045879088	31.399825	35.975969	11.712726
147	7	6	0.44087953	32.83046	37.150269	13.929133
148	8	1	0.091163382	45.787678	47.388134	36.320109
149	8	2	-0.60549378	47.269907	47.591448	36.232955
150	8	1	0.091163382	47.656035	47.734575	34.7913
151	8	1	0.091163382	47.968707	46.378341	36.780839
152	8	1	0.090200476	47.692995	48.839059	36.995659
153	8	1	0.1250061	47.310467	48.866668	38.50739
154	8	3	-0.58036166	48.037271	47.886429	39.263406
155	8	4	0.10271815	45.479627	46.543174	35.696862
156	8	4	0.10271815	45.484014	47.168512	37.348139
157	8	4	0.10271815	45.247903	48.276658	35.978851
158	8	4	0.10271815	48.738246	47.851748	34.680004
159	8	4	0.10271815	47.172613	48.600421	34.328804
160	8	4	0.10271815	47.366657	46.84339	34.226205
161	8	4	0.10271815	47.814097	45.510378	36.132751
162	8	4	0.10271815	49.047036	46.551127	36.848941
163	8	4	0.10271815	47.598357	46.124072	37.778575
164	8	4	0.12002882	47.254748	49.720821	36.518459
165	8	4	0.12002882	48.775978	48.972425	36.914086
166	8	5	0.045879088	47.533884	49.859266	38.910022
167	8	5	0.045879088	46.234055	48.715301	38.632777
168	8	6	0.44087953	49.002013	48.018274	39.208775
169	9	1	0.091163382	56.713352	56.183705	30.937407
170	9	2	-0.60549378	55.456018	56.620955	31.630816
171	9	1	0.091163382	55.103426	57.993317	31.158197
172	9	1	0.091163382	55.693932	56.674623	33.112564
173	9	1	0.090200476	54.305253	55.673423	31.326971
174	9	1	0.1250061	54.670048	54.161854	31.203885
175	9	3	-0.58036166	55.392194	53.68578	32.3403
176	9	4	0.10271815	57.51348	56.915207	31.085696
177	9	4	0.10271815	57.05936	55.221682	31.327384
178	9	4	0.10271815	56.546159	56.080451	29.86099
179	9	4	0.10271815	54.184785	58.347011	31.635995
180	9	4	0.10271815	54.965448	58.005967	30.072799
181	9	4	0.10271815	55.899591	58.700957	31.408515
182	9	4	0.10271815	56.602254	57.238441	33.345702
183	9	4	0.10271815	54.857388	57.155933	33.628147
184	9	4	0.10271815	55.797687	55.669966	33.533499
185	9	4	0.12002882	53.833661	55.972586	30.386016
186	9	4	0.12002882	53.536787	55.779924	32.098596
187	9	5	0.045879088	53.751073	53.579745	31.085892
188	9	5	0.045879088	55.266185	53.991752	30.302238
189	9	6	0.44087953	55.597119	52.73396	32.284372
190	10	1	0.091163382	6.8593758	10.053104	2.8744557
191	10	2	-0.60549378	7.933253	10.859156	3.5441405
192	10	1	0.091163382	7.2986418	11.961542	4.3354851
193	10	1	0.091163382	8.8324887	11.465887	2.5062728
194	10	1	0.090200476	8.7310934	9.9803561	4.493067
195	10	1	0.1250061	9.4720274	8.776502	3.8410163
196	10	3	-0.58036166	10.578283	9.2056543	3.0358529
197	10	4	0.10271815	6.2439448	10.68393	2.225925
198	10	4	0.10271815	7.2909087	9.2571914	2.2599702
199	10	4	0.10271815	6.2069947	9.5832533	3.616702
200	10	4	0.10271815	8.0618638	12.558818	4.8434648
201	10	4	0.10271815	6.6259289	11.560704	5.0997335
202	10	4	0.10271815	6.7305905	12.633766	3.6853132
203	10	4	0.10271815	8.2827979	12.172203	1.8767908
204	10	4	0.10271815	9.6572584	12.007561	2.9791728
205	10	4	0.10271815	9.2618132	10.696484	1.8574372
206	10	4	0.12002882	8.0554056	9.5848364	5.2574623
207	10	4	0.12002882	9.4665504	10.587056	5.0300109
208	10	5	0.045879088	9.8450553	8.1234556	4.6357918
209	10	5	0.045879088	8.7793994	8.1793809	3.2401836
210	10	6	0.44087953	11.072319	8.464424	2.6388872
211	11	1	0.091163382	39.32754	28.463378	44.051776
212	11	2	-0.60549378	40.457916	27.544246	44.38436
213	11	1	0.091163382	40.994477	27.905886	45.731597
214	11	1	0.091163382	41.532888	27.711051	43.351274
215	11	1	0.090200476	39.936552	26.114635	44.379959
216	11	1	0.1250061	41.005268	24.991689	44.51757
217	11	3	-0.58036166	41.677866	25.030084	45.785127
218	11	4	0.10271815	39.671059	29.501514	44.012346
219	11	4	0.10271815	38.90547	28.215747	43.073092
220	11	4	0.10271815	38.532791	28.384993	44.799786
221	11	4	0.10271815	41.873879	27.300918	45.972328
222	11	4	0.10271815	40.240293	27.735972	46.505952
223	11	4	0.10271815	41.285844	28.960235	45.75881
224	11	4	0.10271815	41.858249	28.753984	43.290253
225	11	4	0.10271815	42.400517	27.087471	43.587193
226	11	4	0.10271815	41.169057	27.414546	42.362838
227	11	4	0.12002882	39.39173	25.936358	43.447933
228	11	4	0.12002882	39.195259	25.986714	45.17457
229	11	5	0.045879088	40.510292	24.022341	44.405098
230	11	5	0.045879088	41.736321	25.06072	43.706346
231	11	6	0.44087953	41.069226	24.913993	46.538239
232	12	1	0.091163382	32.916346	5.0320679	16.381888
233	12	2	-0.60549378	31.848652	6.0026431	15.97381
234	12	1	0.091163382	31.728094	7.0604151	17.031933
235	12	1	0.091163382	30.52963	5.2976894	15.836358
236	12	1	0.090200476	32.241678	6.6722995	14.66671
237	12	1	0.1250061	32.215297	5.7837886	13.391609
238	12	3	-0.58036166	30.86935	5.4984683	12.98651
239	12	4	0.10271815	32.681732	4.5768425	17.34885
240	12	4	0.10271815	33.025236	4.2337692	15.641515
241	12	4	0.10271815	33.879626	5.5416995	16.480165
242	12	4	0.10271815	30.954261	7.788164	16.76953
243	12	4	0.10271815	32.671282	7.6025391	17.149353
244	12	4	0.10271815	31.472998	6.6211456	18.001087
245	12	4	0.10271815	30.203412	4.8810837	16.794121
246	12	4	0.10271815	29.759719	5.9891003	15.480716
247	12	4	0.10271815	30.598652	4.4807312	15.111716
248	12	4	0.12002882	33.248434	7.0880747	14.770957
249	12	4	0.12002882	31.593463	7.5342155	14.481766
250	12	5	0.045879088	32.718337	6.3208681	12.581804
251	12	5	0.045879088	32.770333	4.8551047	13.555226
252	12	6	0.44087953	30.308139	6.2959069	12.971191
253	13	1	0.091163382	17.640929	14.094824	1.4623238
254	13	2	-0.60549378	16.15088	13.985935	1.5866594
255	13	1	0.091163382	15.528408	14.414529	0.29467128
256	13	1	0.091163382	15.673963	14.886502	2.6839039
257	13	1	0.090200476	15.742652	12.548769	1.8626595
258	13	1	0.1250061	16.525155	11.822047	2.9962674
259	13	3	-0.58036166	16.50542	12.538089	4.2391014
260	13	4	0.10271815	17.933009	15.108801	1.1727887
261	13	4	0.10271815	18.127741	13.852923	2.4119489
262	13	4	0.10271815	18.016504	13.406067	0.69953419
263	13	4	0.10271815	14.43653	14.398996	0.36431462
264	13	4	0.10271815	15.825964	13.744121	-0.51730383
265	13	4	0.10271815	15.847703	15.425647	0.024524282
266	13	4	0.10271815	15.785809	15.936581	2.3973511
267	13	4	0.10271815	14.619766	14.704077	2.9134247
268	13	4	0.10271815	16.252871	14.72677	3.5985842
269	13	4	0.12002882	15.867035	11.964178	0.94610415
270	13	4	0.12002882	14.674188	12.509624	2.0953406
271	13	5	0.045879088	16.096697	10.826191	3.144533
272	13	5	0.045879088	17.562419	11.668273	2.6836589
273	13	6	0.44087953	15.611459	12.648066	4.6130395
274	14	1	0.091163382	12.484577	17.754183	22.415848
275	14	2	-0.60549378	13.217167	17.949598	21.12165
276	14	1	0.091163382	12.637737	19.137114	20.416448
277	14	1	0.091163382	13.017596	16.737316	20.258317
278	14	1	0.090200476	14.696772	18.195956	21.360595
279	14	1	0.1250061	15.389438	17.271044	22.408142
280	14	3	-0.58036166	15.297645	15.888599	22.044418
281	14	4	0.10271815	11.408902	17.663298	22.237089
282	14	4	0.10271815	12.812246	16.838275	22.916882
283	14	4	0.10271815	12.640089	18.603328	23.0882
284	14	4	0.10271815	13.195548	19.3659	19.503326
285	14	4	0.10271815	12.663711	20.02336	21.057684
286	14	4	0.10271815	11.59251	18.95492	20.148876
287	14	4	0.10271815	11.955007	16.579611	20.05017
288	14	4	0.10271815	13.541654	16.84296	19.303597
289	14	4	0.10271815	13.394026	15.836433	20.75228
290	14	4	0.12002882	14.839612	19.23247	21.680791
291	14	4	0.12002882	15.236961	18.115925	20.412395
292	14	5	0.045879088	16.443591	17.553983	22.485566
293	14	5	0.045879088	14.952786	17.424227	23.399687
294	14	6	0.44087953	15.595636	15.727698	21.129866
295	15	1	0.091163382	25.892327	7.6029283	32.794406
296	15	2	-0.60549378	26.438127	7.3058844	34.157655
297	15	1	0.091163382	27.221744	8.4857529	34.646926
298	15	1	0.091163382	27.363124	6.1249483	34.07589
299	15	1	0.090200476	25.317724	7.0184493	35.144513
300	15	1	0.1250061	24.135611	6.1576122	34.607022
301	15	3	-0.58036166	24.590061	4.9007899	34.098871
302	15	4	0.10271815	26.695199	7.8873867	32.107551
303	15	4	0.10271815	25.385194	6.7258924	32.380989
304	15	4	0.10271815	25.174291	8.42749	32.836967
305	15	4	0.10271815	27.65918	8.2827824	35.629139
306	15	4	0.10271815	26.587946	9.3736875	34.731543
307	15	4	0.10271815	28.046215	8.7148207	33.964968
308	15	4	0.10271815	28.224976	6.34462	33.438513
309	15	4	0.10271815	27.746236	5.8626807	35.066712
310	15	4	0.10271815	26.850004	5.2456129	33.674934
311	15	4	0.12002882	24.905288	7.9653287	35.505903
312	15	4	0.12002882	25.732441	6.5163589	36.023834
313	15	5	0.045879088	23.423283	5.9814841	35.418723
314	15	5	0.045879088	23.594053	6.7009819	33.826795
315	15	6	0.44087953	25.088782	4.3899035	34.763231
316	16	1	0.091163382	8.688305	14.629182	32.842331
317	16	2	-0.60549378	10.13297	14.763285	33.229194
318	16	1	0.091163382	10.311935	16.016246	34.027002
319	16	1	0.091163382	10.97055	14.854019	31.986959
320	16	1	0.090200476	10.542481	13.562264	34.070604
321	16	1	0.1250061	10.689819	12.221007	33.300035
322	16	3	-0.58036166	11.916165	12.188056	32.555671
323	16	4	0.10271815	8.3605433	15.476152	32.232001
324	16	4	0.10271815	8.5268265	13.714352	32.264144
325	16	4	0.10271815	8.0443352	14.566834	33.724773
326	16	4	0.10271815	11.352392	16.126422	34.347312
327	16	4	0.10271815	9.6776909	16.004697	34.918571
328	16	4	0.10271815	10.049987	16.895083	33.430078
329	16	4	0.10271815	10.657766	15.697702	31.364341
330	16	4	0.10271815	12.029111	14.974142	32.236574
331	16	4	0.10271815	10.870538	13.946128	31.384449
332	16	4	0.12002882	9.7985137	13.412153	34.858811
333	16	4	0.12002882	11.489758	13.758141	34.582059
334	16	5	0.045879088	10.691311	11.39661	34.019516
335	16	5	0.045879088	9.8341238	12.060435	32.637246
336	16	6	0.44087953	12.10477	11.301624	32.195449
337	17	1	0.091163382	14.5043	52.092991	53.293328
338	17	2	-0.60549378	13.089615	52.567348	53.220181
339	17	1	0.091163382	13.063265	53.863997	52.469311
340	17	1	0.091163382	12.570277	52.805457	54.61257
341	17	1	0.090200476	12.242273	51.541395	52.496409
342	17	1	0.1250061	11.957207	50.230832	53.278885
343	17	3	-0.58036166	10.926276	50.455184	54.242887
344	17	4	0.10271815	15.119145	52.791543	53.86889
345	17	4	0.10271815	14.567956	51.116114	53.782153
346	17	4	0.10271815	14.944038	52.013903	52.294493
347	17	4	0.10271815	12.041442	54.239998	52.360716
348	17	4	0.10271815	13.500998	53.758483	51.472044
349	17	4	0.10271815	13.642708	54.62491	53.000865
350	17	4	0.10271815	13.160863	53.567982	55.129342
351	17	4	0.10271815	11.525842	53.13107	54.592004
352	17	4	0.10271815	12.620995	51.890888	55.211129
353	17	4	0.12002882	12.733217	51.272364	51.556258
354	17	4	0.12002882	11.279178	51.979103	52.216864
355	17	5	0.045879088	11.623925	49.462934	52.574229
356	17	5	0.045879088	12.863425	49.854808	53.763299
357	17	6	0.44087953	10.500712	49.631705	54.545984
358	18	1	0.091163382	6.6271681	7.6727003	18.300511
359	18	2	-0.60549378	6.9783181	8.1845987	19.665923
360	18	1	0.091163382	6.0596055	9.3225271	19.991999
361	18	1	0.091163382	8.3841914	8.6982888	19.636484
362	18	1	0.090200476	6.8152159	7.1046495	20.720804
363	18	1	0.1250061	7.6245248	5.7943714	20.500839
364	18	3	-0.58036166	9.0310979	5.9797281	20.71878
365	18	4	0.10271815	6.7141271	8.4740269	17.560507
366	18	4	0.10271815	7.3006427	6.8663198	17.994781
367	18	4	0.10271815	5.5956542	7.3091537	18.267307
368	18	4	0.10271815	6.253866	9.7059017	20.998266
369	18	4	0.10271815	5.0126803	9.0098417	19.933134
370	18	4	0.10271815	6.1958706	10.14701	19.285635
371	18	4	0.10271815	8.495999	9.4692123	18.868067
372	18	4	0.10271815	8.6629474	9.143191	20.596507
373	18	4	0.10271815	9.0916902	7.8949833	19.409695
374	18	4	0.12002882	5.7558662	6.8396491	20.790381
375	18	4	0.12002882	7.072891	7.5075638	21.704955
376	18	5	0.045879088	7.2594726	5.0304174	21.193945
377	18	5	0.045879088	7.4464816	5.4060221	19.493479
378	18	6	0.44087953	9.5582783	5.2475291	20.348558
379	19	1	0.091163382	6.1142421	53.392224	32.546735
380	19	2	-0.60549378	6.2374973	51.909018	32.378185
381	19	1	0.091163382	5.4669315	51.488237	31.161466
382	19	1	0.091163382	5.6667149	51.2252	33.583381
383	19	1	0.090200476	7.6975274	51.524973	32.184994
384	19	1	0.1250061	8.6515516	51.815944	33.380215
385	19	3	-0.58036166	8.410188	50.928922	34.477708
386	19	4	0.10271815	5.0700247	53.678555	32.704575
387	19	4	0.10271815	6.6937602	53.736377	33.408713
388	19	4	0.10271815	6.4861482	53.915119	31.660419
389	19	4	0.10271815	5.5136758	50.403771	31.023469
390	19	4	0.10271815	5.8805865	51.950784	30.260227
391	19	4	0.10271815	4.4135085	51.773934	31.238708
392	19	4	0.10271815	4.5966259	51.432686	33.679032
393	19	4	0.10271815	5.8100379	50.142365	33.518481
394	19	4	0.10271815	6.1634356	51.570992	34.494965
395	19	4	0.12002882	8.0873311	52.045965	31.305273
396	19	4	0.12002882	7.7732408	50.460753	31.942103
397	19	5	0.045879088	9.6843922	51.682301	33.044553
398	19	5	0.045879088	8.5584277	52.855659	33.708246
399	19	6	0.44087953	9.0770847	51.020269	35.183403
400	20	1	0.091163382	24.508009	27.253213	47.159224
401	20	2	-0.60549378	24.668565	26.420667	48.403559
402	20	1	0.091163382	24.607537	27.314868	49.60155
403	20	1	0.091163382	26.014652	25.75531	48.38201
404	20	1	0.090200476	23.560066	25.39155	48.508654
405	20	1	0.1250061	23.559945	24.292705	47.410069
406	20	3	-0.58036166	24.182515	23.095627	47.888174
407	20	4	0.10271815	25.255127	28.052144	47.130752
408	20	4	0.10271815	24.656332	26.651902	46.257162
409	20	4	0.10271815	23.515644	27.711525	47.109699
410	20	4	0.10271815	24.764166	26.741047	50.519967
411	20	4	0.10271815	23.637779	27.816164	49.676147
412	20	4	0.10271815	25.382512	28.085933	49.555049
413	20	4	0.10271815	26.815276	26.501129	48.374805
414	20	4	0.10271815	26.15247	25.119419	49.261746
415	20	4	0.10271815	26.13904	25.142157	47.484312
416	20	4	0.12002882	22.595723	25.907397	48.473539
417	20	4	0.12002882	23.598194	24.901381	49.486184
418	20	5	0.045879088	22.523782	24.062166	47.144537
419	20	5	0.045879088	24.053254	24.641292	46.497698
420	20	6	0.44087953	25.140376	23.188598	48.046131
421	21	1	0.091163382	33.598838	6.8411922	46.565595
422	21	2	-0.60549378	32.152355	6.811493	46.967235
423	21	1	0.091163382	31.960948	5.7736486	48.028836
424	21	1	0.091163382	31.348243	6.4282566	45.764179
425	21	1	0.090200476	31.74732	8.1860453	47.484989
426	21	1	0.1250061	30.244374	8.563084	47.318387
427	21	3	-0.58036166	29.367025	7.5647062	47.856469
428	21	4	0.10271815	33.936148	5.8515602	46.242886
429	21	4	0.10271815	33.755996	7.5241792	45.725284
430	21	4	0.10271815	34.239006	7.1613711	47.393212
431	21	4	0.10271815	30.906644	5.694564	48.310757
432	21	4	0.10271815	32.541335	6.0180676	48.923655
433	21	4	0.10271815	32.291634	4.7948176	47.668524
434	21	4	0.10271815	31.720104	5.4959577	45.328484
435	21	4	0.10271815	30.292642	6.2876171	46.015601
436	21	4	0.10271815	31.409042	7.1998912	44.990759
437	21	4	0.12002882	32.333932	8.950808	46.966996
438	21	4	0.12002882	32.018826	8.2775635	48.541017
439	21	5	0.045879088	30.053458	9.5228976	47.807875
440	21	5	0.045879088	30.021474	8.7072843	46.256876
441	21	6	0.44087953	29.36523	7.5377822	48.831334
442	22	1	0.091163382	22.640734	49.854321	16.688344
443	22	2	-0.60549378	21.358099	50.632229	16.735092
444	22	1	0.091163382	21.024153	50.92545	18.16865
445	22	1	0.091163382	20.271645	49.783745	16.141856
446	22	1	0.090200476	21.513224	51.942825	15.985577
447	22	1	0.1250061	21.471047	51.846561	14.427812
448	22	3	-0.58036166	20.133159	51.678276	13.917513
449	22	4	0.10271815	22.498281	48.851089	17.10129
450	22	4	0.10271815	22.996452	49.741211	15.659773
451	22	4	0.10271815	23.423717	50.3442	17.275068
452	22	4	0.10271815	20.067973	51.451182	18.249996
453	22	4	0.10271815	21.79172	51.554828	18.629104
454	22	4	0.10271815	20.958624	50.003638	18.75453
455	22	4	0.10271815	20.110509	48.887501	16.748549
456	22	4	0.10271815	19.32991	50.337515	16.080512
457	22	4	0.10271815	20.544381	49.456768	15.133891
458	22	4	0.12002882	22.465308	52.398782	16.273545
459	22	4	0.12002882	20.750113	52.65255	16.3191
460	22	5	0.045879088	21.896448	52.759762	14.000741
461	22	5	0.045879088	22.103474	51.018562	14.09353
462	22	6	0.44087953	19.598778	52.493901	13.934354
463	23	1	0.091163382	39.072285	37.67499	24.434421
464	23	2	-0.60549378	38.192692	36.707504	25.169077
465	23	1	0.091163382	38.982775	35.469275	25.472336
466	23	1	0.091163382	37.02909	36.340292	24.29764
467	23	1	0.090200476	37.721128	37.314804	26.47085
468	23	1	0.1250061	36.792252	38.546746	26.327336
469	23	3	-0.58036166	35.423613	38.185964	26.545641
470	23	4	0.10271815	39.50561	37.205875	23.545911
471	23	4	0.10271815	38.504927	38.550894	24.105506
472	23	4	0.10271815	39.896975	38.011658	25.0699
473	23	4	0.10271815	38.373053	34.737167	26.010432
474	23	4	0.10271815	39.854345	35.705605	26.090236
475	23	4	0.10271815	39.339371	34.998908	24.550984
476	23	4	0.10271815	37.367609	35.881975	23.363488
477	23	4	0.10271815	36.369247	35.624475	24.797142
478	23	4	0.10271815	36.432424	37.218907	24.034362
479	23	4	0.12002882	38.59688	37.614615	27.054341
480	23	4	0.12002882	37.212033	36.563418	27.082021
481	23	5	0.045879088	37.077007	39.289868	27.078314
482	23	5	0.045879088	36.913254	39.027102	25.351679
483	23	6	0.44087953	35.048552	37.592144	25.869029
484	24	1	0.091163382	42.218676	14.465858	24.564533
485	24	2	-0.60549378	42.828336	14.810704	25.889771
486	24	1	0.091163382	41.815925	14.544109	26.95914
487	24	1	0.091163382	43.158946	16.274918	25.892045
488	24	1	0.090200476	44.068937	13.965594	26.138279
489	24	1	0.1250061	45.219159	14.165188	25.109184
490	24	3	-0.58036166	45.933228	15.382413	25.355139
491	24	4	0.10271815	41.197805	14.853044	24.492478
492	24	4	0.10271815	42.79211	14.916553	23.748853
493	24	4	0.10271815	42.175407	13.382224	24.419093
494	24	4	0.10271815	42.2086	14.802692	27.947185
495	24	4	0.10271815	41.529222	13.488158	26.96667
496	24	4	0.10271815	40.911202	15.134495	26.785319
497	24	4	0.10271815	42.252536	16.872566	25.755901
498	24	4	0.10271815	43.632083	16.571457	26.833053
499	24	4	0.10271815	43.842607	16.518815	25.073259
500	24	4	0.12002882	43.787079	12.908349	26.129467
501	24	4	0.12002882	44.46342	14.154537	27.141261
502	24	5	0.045879088	45.914497	13.323915	25.186944
503	24	5	0.045879088	44.832244	14.15373	24.085732
504	24	6	0.44087953	46.407776	15.370104	26.207049
505	25	1	0.091163382	42.710671	46.867294	10.862424
506	25	2	-0.60549378	41.34696	47.181792	10.31424
507	25	1	0.091163382	41.40779	48.477211	9.5551413
508	25	1	0.091163382	40.37683	47.3457	11.449322
509	25	1	0.090200476	40.88232	46.08633	9.3705904
510	25	1	0.1250061	40.946069	44.621553	9.8986501
511	25	3	-0.58036166	40.158987	44.388041	11.073921
512	25	4	0.10271815	43.066158	47.67858	11.504871
513	25	4	0.10271815	42.689099	45.953803	11.46439
514	25	4	0.10271815	43.433032	46.719203	10.053993
515	25	4	0.10271815	40.421991	48.752866	9.1684771
516	25	4	0.10271815	42.094307	48.403845	8.7062591
517	25	4	0.10271815	41.75025	49.291105	10.201355
518	25	4	0.10271815	40.648723	48.206534	12.067648
519	25	4	0.10271815	39.360664	47.503352	11.075375
520	25	4	0.10271815	40.371704	46.463356	12.096413
521	25	4	0.12002882	41.48581	46.127281	8.4587723
522	25	4	0.12002882	39.855132	46.293144	9.0553147
523	25	5	0.045879088	40.606275	43.953252	9.1016555
524	25	5	0.045879088	41.98319	44.343815	10.109658
525	25	6	0.44087953	40.722799	44.247842	11.857219
526	26	1	0.091163382	46.113949	9.8741901	16.778026
527	26	2	-0.60549378	45.063801	9.9875158	15.713685
528	26	1	0.091163382	44.168091	8.7891364	15.80132
529	26	1	0.091163382	45.740366	10.025376	14.375489
530	26	1	0.090200476	44.284196	11.268325	15.931889
531	26	1	0.1250061	43.33765	11.710322	14.775177
532	26	3	-0.58036166	42.41961	10.68482	14.396189
533	26	4	0.10271815	46.725531	8.9793211	16.628127
534	26	4	0.10271815	46.785831	10.737393	16.75078
535	26	4	0.10271815	45.665927	9.8168927	17.774662
536	26	4	0.10271815	43.428922	8.7837756	14.994544
537	26	4	0.10271815	43.640232	8.7619388	16.759399
538	26	4	0.10271815	44.750643	7.8662688	15.722359
539	26	4	0.10271815	46.375098	9.1450965	14.235806
540	26	4	0.10271815	45.005651	10.061384	13.565433
541	26	4	0.10271815	46.379371	10.909859	14.293916
542	26	4	0.12002882	44.998927	12.081153	16.092372
543	26	4	0.12002882	43.709259	11.201279	16.860456
544	26	5	0.045879088	42.786489	12.604431	15.081904
545	26	5	0.045879088	43.927417	11.996181	13.898965
546	26	6	0.44087953	41.839194	10.390478	15.122526
547	27	1	0.091163382	50.49089	7.6856381	47.04422
548	27	2	-0.60549378	51.769404	7.4179876	46.313825
549	27	1	0.091163382	51.751442	6.0086936	45.809474
550	27	1	0.091163382	52.915387	7.5986141	47.26903
551	27	1	0.090200476	51.874766	8.4005463	45.159011
552	27	1	0.1250061	53.21877	8.4093082	44.373555
553	27	3	-0.58036166	53.449826	7.1801221	43.676381
554	27	4	0.10271815	50.340657	6.9578916	47.847404
555	27	4	0.10271815	50.501466	8.6797404	47.501316
556	27	4	0.10271815	49.632134	7.6305264	46.368356
557	27	4	0.10271815	52.709904	5.7434165	45.353112
558	27	4	0.10271815	50.969334	5.8795601	45.055208
559	27	4	0.10271815	51.564708	5.307017	46.628051
560	27	4	0.10271815	52.785306	6.9751513	48.158784
561	27	4	0.10271815	53.86735	7.3294669	46.801467
562	27	4	0.10271815	52.981582	8.6382955	47.60365
563	27	4	0.12002882	51.710787	9.4134641	45.539007
564	27	4	0.12002882	51.061749	8.226372	44.447703
565	27	5	0.045879088	53.190737	9.2254531	43.645263
566	27	5	0.045879088	54.055758	8.6236459	45.044975
567	27	6	0.44087953	54.109912	7.2742057	42.964668
568	28	1	0.091163382	14.484338	56.952424	45.729003
569	28	2	-0.60549378	15.970854	56.841903	45.914526
570	28	1	0.091163382	16.326693	57.23125	47.318916
571	28	1	0.091163382	16.666577	57.781911	44.974451
572	28	1	0.090200476	16.396331	55.403166	45.682054
573	28	1	0.1250061	16.394382	54.948454	44.19251
574	28	3	-0.58036166	17.601422	55.339313	43.514977
575	28	4	0.10271815	14.144555	57.983179	45.868216
576	28	4	0.10271815	14.187714	56.627512	44.727139
577	28	4	0.10271815	13.955259	56.315789	46.444592
578	28	4	0.10271815	17.408743	57.182322	47.474046
579	28	4	0.10271815	15.855713	56.558194	48.041735