Title

10250 atoms
9250 bonds
15125 angles
23250 dihedrals
0 impropers

7 atom types
5 bond types
4 angle types
12 dihedral types
-2.765978575 57.23402143 xlo xhi
-10.60821056 49.39178944 ylo yhi
-5.991998315 54.00800169 zlo zhi
0.0 0.0 0.0 xy xz yz

Masses

1	12.01078
2	14.00672
3	15.99943
4	1.007947
5	1.007947
6	1.007947
7	35.4532


Pair Coeffs

1	0.10884061	3.3795318
2	0.16769152	3.206876
3	0.20947353	2.99716
4	0.0157	1.9599772
5	0.016409246	2.5832257
6	1.2326e-05	0.53453923
7	0.035591	4.477657

Bond Coeffs

1 harmonic	225.97114073395	1.477375101044
2 harmonic	357.8191474159	1.094206460752
3 harmonic	215.30139056395	1.533627603844
4 harmonic	258.9527804663	1.426323519316
5 harmonic	538.350794015	0.9752301008088


Angle Coeffs

1 harmonic	124.0884341307	113.2116558678
2 harmonic	66.75631831595	109.9380527584
3 harmonic	119.8958895535	112.8736161145
4 harmonic	36.776637850755	108.3543135269


Dihedral Coeffs

1 fourier 1	0.1113575199827	3	0
2 fourier 1	0.07484583104594	3	0
3 fourier 1	0.3153839995235	2	180
4 fourier 1	0.143904881748	3	0
5 fourier 1	0.4431584714139	3	0
6 fourier 1	0.1140296769156	1	0
7 fourier 1	0.1311347012225	3	0
8 fourier 1	0.436546671918	1	0
9 fourier 1	0.2279946533057	3	0
10 fourier 1	0.3636269884643333	3	0
11 fourier 1	-0.01533770820035	3	0
12 fourier 1	0.4191503124266	2	0


Atoms

1	1	1	0.091163382	7.5758207	17.73875	52.414823
2	1	2	-0.60549378	8.5237616	16.719137	51.848269
3	1	1	0.091163382	7.7288139	15.545031	51.380715
4	1	1	0.091163382	9.4662684	16.240017	52.91153
5	1	1	0.090200476	9.2960459	17.279528	50.665774
6	1	1	0.1250061	9.8403096	18.733425	50.802369
7	1	3	-0.58036166	10.794348	18.877069	51.865568
8	1	4	0.10271815	7.0194685	17.32053	53.25913
9	1	4	0.10271815	8.1054455	18.623346	52.781258
10	1	4	0.10271815	6.8559831	18.067138	51.658988
11	1	4	0.10271815	8.3729458	14.79939	50.904899
12	1	4	0.10271815	6.9805884	15.859529	50.646863
13	1	4	0.10271815	7.2105896	15.066892	52.217445
14	1	4	0.10271815	8.9193797	15.87644	53.786755
15	1	4	0.10271815	10.084703	15.419241	52.535825
16	1	4	0.10271815	10.142286	17.035329	53.239803
17	1	4	0.12002882	8.6558741	17.245717	49.779024
18	1	4	0.12002882	10.136691	16.618794	50.433316
19	1	5	0.045879088	10.323156	19.008807	49.859867
20	1	5	0.045879088	9.0147793	19.437973	50.941653
21	1	6	0.44087953	10.389661	18.825881	52.751408
22	2	1	0.091163382	40.113282	50.078321	46.024289
23	2	2	-0.60549378	40.560403	48.640361	46.041856
24	2	1	0.091163382	42.016296	48.57985	46.396065
25	2	1	0.091163382	40.368533	48.054447	44.67093
26	2	1	0.090200476	39.771235	47.859592	47.07932
27	2	1	0.1250061	38.255386	47.705245	46.781311
28	2	3	-0.58036166	38.044844	46.740098	45.746984
29	2	4	0.10271815	40.68471	50.660062	45.294676
30	2	4	0.10271815	39.059048	50.162072	45.743465
31	2	4	0.10271815	40.24652	50.549974	47.002592
32	2	4	0.10271815	42.358756	47.545147	46.493001
33	2	4	0.10271815	42.21591	49.091072	47.342687
34	2	4	0.10271815	42.624331	49.058924	45.622716
35	2	4	0.10271815	41.028934	48.536315	43.943634
36	2	4	0.10271815	40.579219	46.980715	44.671288
37	2	4	0.10271815	39.336438	48.191681	44.334416
38	2	4	0.12002882	39.880712	48.349566	48.051543
39	2	4	0.12002882	40.195813	46.857615	47.193642
40	2	5	0.045879088	37.738359	47.374663	47.687225
41	2	5	0.045879088	37.821438	48.669395	46.499538
42	2	6	0.44087953	37.150202	46.792393	45.362315
43	3	1	0.091163382	4.7569585	18.229417	7.1773964
44	3	2	-0.60549378	4.182362	17.875074	5.8375639
45	3	1	0.091163382	5.2955383	17.824998	4.8346391
46	3	1	0.091163382	3.209289	18.942621	5.4098403
47	3	1	0.090200476	3.5178834	16.511743	5.9065342
48	3	1	0.1250061	2.1706533	16.466568	6.6773343
49	3	3	-0.58036166	1.1063001	16.963372	5.8575916
50	3	4	0.10271815	5.352264	19.145523	7.1170056
51	3	4	0.10271815	3.9669153	18.383502	7.9185969
52	3	4	0.10271815	5.4127961	17.432382	7.5405806
53	3	4	0.10271815	4.9030811	17.781026	3.8141817
54	3	4	0.10271815	5.9331435	16.950755	4.9972621
55	3	4	0.10271815	5.9205729	18.720492	4.9032944
56	3	4	0.10271815	3.6986694	19.920347	5.3668433
57	3	4	0.10271815	2.8082538	18.729002	4.4144377
58	3	4	0.10271815	2.367173	19.016517	6.1045843
59	3	4	0.12002882	4.2064238	15.808941	6.3853562
60	3	4	0.12002882	3.3438259	16.129214	4.8962548
61	3	5	0.045879088	1.9544016	15.430824	6.9561875
62	3	5	0.045879088	2.2389093	17.048825	7.6012421
63	3	6	0.44087953	0.23840716	16.950513	6.3021964
64	4	1	0.091163382	46.560535	29.4682	3.6417875
65	4	2	-0.60549378	45.614147	30.554137	4.0530941
66	4	1	0.091163382	45.976691	31.815317	3.3324087
67	4	1	0.091163382	45.763249	30.793433	5.5217165
68	4	1	0.090200476	44.174895	30.191712	3.7420413
69	4	1	0.1250061	43.759456	28.729479	4.0736488
70	4	3	-0.58036166	43.976645	28.402801	5.4483807
71	4	4	0.10271815	47.595401	29.784098	3.8047341
72	4	4	0.10271815	46.399097	28.56971	4.2450637
73	4	4	0.10271815	46.437531	29.214492	2.5845313
74	4	4	0.10271815	45.30107	32.630305	3.6092103
75	4	4	0.10271815	45.915122	31.680784	2.2482505
76	4	4	0.10271815	46.995611	32.123535	3.585577
77	4	4	0.10271815	46.76456	31.176043	5.7414287
78	4	4	0.10271815	45.02871	31.523669	5.8745569
79	4	4	0.10271815	45.641217	29.865074	6.0878843
80	4	4	0.12002882	43.972569	30.378935	2.6831266
81	4	4	0.12002882	43.510408	30.873964	4.280816
82	4	5	0.045879088	42.698421	28.598447	3.8405728
83	4	5	0.045879088	44.31047	28.029437	3.4383443
84	4	6	0.44087953	43.43739	28.944707	6.0538816
85	5	1	0.091163382	49.375124	15.13342	49.422684
86	5	2	-0.60549378	48.887873	15.595046	48.081565
87	5	1	0.091163382	47.389808	15.617871	48.093648
88	5	1	0.091163382	49.348888	14.637202	47.030149
89	5	1	0.090200476	49.400826	16.990565	47.774
90	5	1	0.1250061	50.922956	17.221175	48.00437
91	5	3	-0.58036166	51.741824	16.355326	47.213902
92	5	4	0.10271815	48.972597	14.145169	49.664793
93	5	4	0.10271815	50.466695	15.05846	49.434652
94	5	4	0.10271815	49.065924	15.828729	50.20896
95	5	4	0.10271815	46.997762	15.964975	47.132864
96	5	4	0.10271815	47.015729	16.277505	48.882465
97	5	4	0.10271815	46.989145	14.615643	48.273368
98	5	4	0.10271815	48.861589	13.664641	47.148285
99	5	4	0.10271815	49.108014	15.014132	46.031556
100	5	4	0.10271815	50.431089	14.485604	47.086244
101	5	4	0.12002882	48.862815	17.713865	48.394217
102	5	4	0.12002882	49.160933	17.256211	46.739993
103	5	5	0.045879088	51.167846	18.261744	47.770844
104	5	5	0.045879088	51.159902	17.075236	49.0626
105	5	6	0.44087953	51.658578	16.521046	46.256456
106	6	1	0.091163382	7.5516295	9.9545217	11.305923
107	6	2	-0.60549378	8.9245391	9.5444256	10.875726
108	6	1	0.091163382	9.2177051	10.171286	9.5419359
109	6	1	0.091163382	8.9807993	8.0494577	10.717324
110	6	1	0.090200476	9.9571806	10.016212	11.886718
111	6	1	0.1250061	9.6992534	9.6470219	13.382524
112	6	3	-0.58036166	9.5698857	8.2320601	13.589852
113	6	4	0.10271815	6.7918462	9.5448214	10.633494
114	6	4	0.10271815	7.3321605	9.6005213	12.317755
115	6	4	0.10271815	7.4600619	11.04489	11.305385
116	6	4	0.10271815	10.211172	9.8891634	9.1803861
117	6	4	0.10271815	9.1759706	11.263312	9.5969385
118	6	4	0.10271815	8.4920651	9.8483706	8.7892997
119	6	4	0.10271815	8.3329934	7.7186942	9.8998684
120	6	4	0.10271815	9.9992698	7.7165431	10.495572
121	6	4	0.10271815	8.6562526	7.5374073	11.628237
122	6	4	0.12002882	10.04547	11.105282	11.828227
123	6	4	0.12002882	10.938182	9.6218514	11.604934
124	6	5	0.045879088	10.536271	10.0209	13.979938
125	6	5	0.045879088	8.8062769	10.158677	13.754127
126	6	6	0.44087953	9.8338944	7.9564786	14.487323
127	7	1	0.091163382	7.4622029	25.437903	33.042185
128	7	2	-0.60549378	6.6400766	24.300458	32.502375
129	7	1	0.091163382	5.6879473	24.837124	31.479383
130	7	1	0.091163382	5.8421344	23.687522	33.619275
131	7	1	0.090200476	7.531907	23.25557	31.851528
132	7	1	0.1250061	8.7589043	22.791076	32.691453
133	7	3	-0.58036166	8.3658874	22.101624	33.881581
134	7	4	0.10271815	6.8235528	26.227126	33.450282
135	7	4	0.10271815	8.1228769	25.1	33.846312
136	7	4	0.10271815	8.0869609	25.880797	32.260642
137	7	4	0.10271815	5.0314063	24.046369	31.103952
138	7	4	0.10271815	6.2271714	25.281074	30.637102
139	7	4	0.10271815	5.0541294	25.617027	31.912179
140	7	4	0.10271815	5.1417756	24.413595	34.043074
141	7	4	0.10271815	5.2517968	22.84024	33.257473
142	7	4	0.10271815	6.4948434	23.333116	34.422803
143	7	4	0.12002882	7.9081976	23.652852	30.903971
144	7	4	0.12002882	6.9379091	22.37448	31.590497
145	7	5	0.045879088	9.3808967	22.127676	32.082915
146	7	5	0.045879088	9.3863314	23.64893	32.951663
147	7	6	0.44087953	8.0790645	21.18433	33.716071
148	8	1	0.091163382	51.184163	55.870819	13.040992
149	8	2	-0.60549378	51.296868	55.306282	11.652734
150	8	1	0.091163382	50.4774	56.167583	10.736457
151	8	1	0.091163382	50.761156	53.908372	11.626637
152	8	1	0.090200476	52.74137	55.335999	11.183879
153	8	1	0.1250061	53.791394	54.610043	12.080815
154	8	3	-0.58036166	53.676605	53.178582	12.045755
155	8	4	0.10271815	50.136681	55.949502	13.3474
156	8	4	0.10271815	51.712375	55.249014	13.770125
157	8	4	0.10271815	51.605873	56.879668	13.081952
158	8	4	0.10271815	50.47143	55.769591	9.7172141
159	8	4	0.10271815	50.875444	57.186298	10.703709
160	8	4	0.10271815	49.444227	56.241689	11.089092
161	8	4	0.10271815	49.701457	53.88998	11.898644
162	8	4	0.10271815	50.861139	53.474045	10.627311
163	8	4	0.10271815	51.301532	53.265791	12.328335
164	8	4	0.12002882	53.052926	56.381235	11.096106
165	8	4	0.12002882	52.809629	54.924402	10.172336
166	8	5	0.045879088	54.787951	54.888501	11.724972
167	8	5	0.045879088	53.728108	54.959836	13.115671
168	8	6	0.44087953	54.528074	52.739639	12.228578
169	9	1	0.091163382	5.3158867	25.393848	48.214602
170	9	2	-0.60549378	4.6980259	24.339571	47.34273
171	9	1	0.091163382	3.2764807	24.714599	47.043614
172	9	1	0.091163382	4.7192779	23.022153	48.059731
173	9	1	0.090200476	5.4409659	24.220562	46.021304
174	9	1	0.1250061	6.9920617	24.193556	46.097193
175	9	3	-0.58036166	7.4635857	23.091455	46.876106
176	9	4	0.10271815	4.7618997	25.497961	49.152446
177	9	4	0.10271815	6.3500011	25.136955	48.463407
178	9	4	0.10271815	5.312373	26.368198	47.716694
179	9	4	0.10271815	2.8056368	23.966396	46.398797
180	9	4	0.10271815	3.2295355	25.669322	46.511083
181	9	4	0.10271815	2.6882645	24.804058	47.961922
182	9	4	0.10271815	4.1089359	23.059456	48.967133
183	9	4	0.10271815	4.330726	22.226927	47.416353
184	9	4	0.10271815	5.7391298	22.751951	48.349872
185	9	4	0.12002882	5.1490468	25.048482	45.368142
186	9	4	0.12002882	5.1098245	23.317826	45.499101
187	9	5	0.045879088	7.3940647	24.116027	45.082469
188	9	5	0.045879088	7.3668206	25.132647	46.515465
189	9	6	0.44087953	7.1796858	22.231476	46.514268
190	10	1	0.091163382	52.304301	9.7940481	32.209423
191	10	2	-0.60549378	53.599572	9.6323001	31.460824
192	10	1	0.091163382	54.570818	8.8600898	32.303758
193	10	1	0.091163382	54.188395	10.986027	31.189029
194	10	1	0.090200476	53.386288	8.8864166	30.153725
195	10	1	0.1250061	52.166386	9.3404233	29.297929
196	10	3	-0.58036166	52.220426	10.730584	28.972235
197	10	4	0.10271815	52.463961	10.326326	33.152015
198	10	4	0.10271815	51.583438	10.370435	31.621699
199	10	4	0.10271815	51.860409	8.8215321	32.442784
200	10	4	0.10271815	55.530386	8.7537098	31.788776
201	10	4	0.10271815	54.186621	7.8603679	32.527897
202	10	4	0.10271815	54.753838	9.3721014	33.253305
203	10	4	0.10271815	54.455161	11.487327	32.12435
204	10	4	0.10271815	55.094018	10.900698	30.580873
205	10	4	0.10271815	53.477802	11.623391	30.654132
206	10	4	0.12002882	53.273692	7.8181511	30.362098
207	10	4	0.12002882	54.287739	8.9684027	29.538946
208	10	5	0.045879088	52.140775	8.7555832	28.373487
209	10	5	0.045879088	51.234417	9.12664	29.829924
210	10	6	0.44087953	53.0054	10.96995	28.445346
211	11	1	0.091163382	6.6479248	48.313231	17.807227
212	11	2	-0.60549378	5.1793456	48.029227	17.907723
213	11	1	0.091163382	4.9588969	47.062192	19.02983
214	11	1	0.091163382	4.7092783	47.408905	16.623868
215	11	1	0.090200476	4.4232476	49.316463	18.19811
216	11	1	0.1250061	4.3582407	50.333776	17.019244
217	11	3	-0.58036166	3.2841316	50.030737	16.118428
218	11	4	0.10271815	7.2203267	47.386627	17.702113
219	11	4	0.10271815	6.8719667	48.940911	16.939405
220	11	4	0.10271815	7.0161563	48.827386	18.700167
221	11	4	0.10271815	3.9000633	46.801686	19.12092
222	11	4	0.10271815	5.2822524	47.487779	19.984609
223	11	4	0.10271815	5.5203897	46.137156	18.867557
224	11	4	0.10271815	5.2134693	46.45443	16.444811
225	11	4	0.10271815	3.6297637	47.231922	16.648642
226	11	4	0.10271815	4.9250722	48.064542	15.774832
227	11	4	0.12002882	4.8942399	49.815836	19.050213
228	11	4	0.12002882	3.4006512	49.092712	18.516734
229	11	5	0.045879088	4.2034295	51.336904	17.42797
230	11	5	0.045879088	5.3073806	50.357943	16.475335
231	11	6	0.44087953	3.1368089	50.736742	15.461969
232	12	1	0.091163382	49.299684	15.975361	13.795525
233	12	2	-0.60549378	47.992187	15.525525	14.372209
234	12	1	0.091163382	48.131013	14.1111	14.828316
235	12	1	0.091163382	46.916618	15.613067	13.321277
236	12	1	0.090200476	47.627535	16.389347	15.564464
237	12	1	0.1250061	47.521143	17.910358	15.283089
238	12	3	-0.58036166	46.507483	18.468876	16.127727
239	12	4	0.10271815	49.535532	15.431216	12.875977
240	12	4	0.10271815	49.270382	17.042437	13.555152
241	12	4	0.10271815	50.115519	15.819359	14.507817
242	12	4	0.10271815	47.213249	13.765904	15.313953
243	12	4	0.10271815	48.943772	14.025077	15.555849
244	12	4	0.10271815	48.351841	13.443531	13.989941
245	12	4	0.10271815	47.114635	14.92239	12.496022
246	12	4	0.10271815	45.933952	15.379865	13.742319
247	12	4	0.10271815	46.862617	16.620709	12.898154
248	12	4	0.12002882	48.35381	16.244644	16.369991
249	12	4	0.12002882	46.664743	16.052897	15.96085
250	12	5	0.045879088	48.480654	18.401483	15.471309
251	12	5	0.045879088	47.261949	18.090893	14.235467
252	12	6	0.44087953	45.638452	18.052816	15.976825
253	13	1	0.091163382	4.0009513	17.324125	53.276854
254	13	2	-0.60549378	3.1918007	16.106336	52.929025
255	13	1	0.091163382	3.5373285	15.004158	53.885713
256	13	1	0.091163382	3.5328996	15.65246	51.54243
257	13	1	0.090200476	1.704593	16.403513	53.034863
258	13	1	0.1250061	1.165268	17.54288	52.116761
259	13	3	-0.58036166	1.1625376	17.176445	50.728941
260	13	4	0.10271815	5.0676221	17.084608	53.323059
261	13	4	0.10271815	3.8671127	18.118687	52.536554
262	13	4	0.10271815	3.7181178	17.724508	54.255114
263	13	4	0.10271815	2.9785252	14.094256	53.646741
264	13	4	0.10271815	3.3036777	15.287423	54.916468
265	13	4	0.10271815	4.6036097	14.763402	53.837028
266	13	4	0.10271815	4.5770094	15.331926	51.476231
267	13	4	0.10271815	2.8980166	14.812623	51.244292
268	13	4	0.10271815	3.3836383	16.457016	50.816002
269	13	4	0.12002882	1.4710395	16.666554	54.070983
270	13	4	0.12002882	1.1297056	15.496407	52.825217
271	13	5	0.045879088	0.14034691	17.780068	52.417707
272	13	5	0.045879088	1.7522387	18.455033	52.260737
273	13	6	0.44087953	0.60101673	16.401818	50.53987
274	14	1	0.091163382	19.642112	27.53171	18.752254
275	14	2	-0.60549378	18.668612	27.793958	19.863744
276	14	1	0.091163382	19.396353	28.458686	20.992382
277	14	1	0.091163382	18.115401	26.482673	20.340791
278	14	1	0.090200476	17.540692	28.702958	19.399476
279	14	1	0.1250061	16.752998	28.218956	18.146647
280	14	3	-0.58036166	15.927179	27.088418	18.44148
281	14	4	0.10271815	20.445058	26.870239	19.091401
282	14	4	0.10271815	19.151695	27.035675	17.909207
283	14	4	0.10271815	20.091894	28.463037	18.395021
284	14	4	0.10271815	18.733642	28.611507	21.849556
285	14	4	0.10271815	19.788271	29.434876	20.691154
286	14	4	0.10271815	20.246143	27.85368	21.322703
287	14	4	0.10271815	18.915862	25.832744	20.707045
288	14	4	0.10271815	17.394118	26.632698	21.149824
289	14	4	0.10271815	17.610303	25.952995	19.5274
290	14	4	0.12002882	17.949814	29.694824	19.184736
291	14	4	0.12002882	16.827184	28.853817	20.215218
292	14	5	0.045879088	16.119362	29.033756	17.783477
293	14	5	0.045879088	17.442838	27.975156	17.333032
294	14	6	0.44087953	15.762916	26.536283	17.654552
295	15	1	0.091163382	6.0168558	9.0024364	44.995508
296	15	2	-0.60549378	7.4646515	9.3605709	44.858184
297	15	1	0.091163382	8.0045837	8.7433529	43.599792
298	15	1	0.091163382	8.2100433	8.801949	46.036444
299	15	1	0.090200476	7.592926	10.872828	44.782062
300	15	1	0.1250061	8.973704	11.458095	45.191331
301	15	3	-0.58036166	10.056514	10.846792	44.480066
302	15	4	0.10271815	5.8768392	7.9177576	44.961486
303	15	4	0.10271815	5.6142646	9.3590117	45.948434
304	15	4	0.10271815	5.4243517	9.4478792	44.190645
305	15	4	0.10271815	9.0730917	8.9508975	43.487968
306	15	4	0.10271815	7.4819148	9.1286087	42.719064
307	15	4	0.10271815	7.8781629	7.6565814	43.615074
308	15	4	0.10271815	8.0149037	7.7309781	46.147037
309	15	4	0.10271815	9.2894906	8.9360595	45.917711
310	15	4	0.10271815	7.9013276	9.2950696	46.963162
311	15	4	0.12002882	6.8330956	11.332686	45.421181
312	15	4	0.12002882	7.35645	11.209319	43.768086
313	15	5	0.045879088	8.9823294	12.539157	45.022449
314	15	5	0.045879088	9.1219002	11.310817	46.265407
315	15	6	0.44087953	10.25023	11.27407	43.625078
316	16	1	0.091163382	37.751319	27.615104	27.576089
317	16	2	-0.60549378	38.824227	28.634968	27.344117
318	16	1	0.091163382	40.134983	27.921798	27.200842
319	16	1	0.091163382	38.904345	29.544573	28.534048
320	16	1	0.090200476	38.547394	29.433751	26.079271
321	16	1	0.1250061	37.085385	29.949613	25.921881
322	16	3	-0.58036166	36.74768	30.899131	26.940708
323	16	4	0.10271815	37.956519	27.036355	28.481755
324	16	4	0.10271815	36.772163	28.087327	27.700758
325	16	4	0.10271815	37.696898	26.905978	26.744542
326	16	4	0.10271815	40.94676	28.628993	27.005432
327	16	4	0.10271815	40.097799	27.194481	26.384194
328	16	4	0.10271815	40.373955	27.367017	28.113201
329	16	4	0.10271815	39.142435	28.974879	29.437404
330	16	4	0.10271815	39.682145	30.301552	28.395131
331	16	4	0.10271815	37.953491	30.059998	28.699882
332	16	4	0.12002882	38.781457	28.816721	25.20647
333	16	4	0.12002882	39.22709	30.289562	26.025486
334	16	5	0.045879088	36.981544	30.42484	24.941745
335	16	5	0.045879088	36.3779	29.114995	25.934772
336	16	6	0.44087953	37.20849	31.748114	26.80661
337	17	1	0.091163382	14.914885	34.34242	4.5744374
338	17	2	-0.60549378	15.594598	35.67179	4.7087798
339	17	1	0.091163382	14.659497	36.62894	5.3737754
340	17	1	0.091163382	15.944543	36.212859	3.3532223
341	17	1	0.090200476	16.836175	35.541592	5.5709624
342	17	1	0.1250061	17.871184	34.46398	5.1338345
343	17	3	-0.58036166	18.44339	34.754701	3.8493022
344	17	4	0.10271815	13.960335	34.442878	4.0490481
345	17	4	0.10271815	15.542847	33.637586	4.0211204
346	17	4	0.10271815	14.713662	33.911307	5.5598009
347	17	4	0.10271815	15.111583	37.622199	5.4534143
348	17	4	0.10271815	14.409003	36.291516	6.3840652
349	17	4	0.10271815	13.732458	36.732986	4.8018819
350	17	4	0.10271815	15.043861	36.439886	2.7748471
351	17	4	0.10271815	16.512889	37.1433	3.4457049
352	17	4	0.10271815	16.548439	35.501935	2.7812195
353	17	4	0.12002882	16.530133	35.310895	6.595856
354	17	4	0.12002882	17.344422	36.508639	5.6325167
355	17	5	0.045879088	18.670281	34.424942	5.8802974
356	17	5	0.045879088	17.408377	33.472514	5.1243144
357	17	6	0.44087953	18.785518	35.666282	3.793948
358	18	1	0.091163382	54.82676	20.82123	18.694353
359	18	2	-0.60549378	53.481855	20.821571	18.034825
360	18	1	0.091163382	52.648249	19.699519	18.584245
361	18	1	0.091163382	53.646569	20.599973	16.554294
362	18	1	0.090200476	52.767696	22.141087	18.303515
363	18	1	0.1250061	53.325701	23.365359	17.526962
364	18	3	-0.58036166	52.835236	23.363376	16.18229
365	18	4	0.10271815	55.338926	19.868668	18.528205
366	18	4	0.10271815	55.457282	21.620162	18.292559
367	18	4	0.10271815	54.730949	20.974517	19.773525
368	18	4	0.10271815	51.648965	19.706342	18.138517
369	18	4	0.10271815	52.53407	19.782133	19.669338
370	18	4	0.10271815	53.094573	18.728569	18.349004
371	18	4	0.10271815	54.053707	19.605968	16.345776
372	18	4	0.10271815	52.682061	20.671284	16.042507
373	18	4	0.10271815	54.307199	21.353076	16.11419
374	18	4	0.12002882	52.807446	22.365444	19.373736
375	18	4	0.12002882	51.704812	22.045081	18.061956
376	18	5	0.045879088	52.999067	24.284611	18.022522
377	18	5	0.045879088	54.419847	23.366799	17.538154
378	18	6	0.44087953	51.864872	23.454387	16.147429
379	19	1	0.091163382	5.5285418	3.7213817	46.639996
380	19	2	-0.60549378	4.2289394	3.344295	47.285228
381	19	1	0.091163382	3.3225197	4.5384449	47.285876
382	19	1	0.091163382	4.4870743	2.9160139	48.699164
383	19	1	0.090200476	3.5605264	2.2126645	46.514273
384	19	1	0.1250061	4.4770309	1.0080811	46.146731
385	19	3	-0.58036166	5.0351167	0.38535614	47.30679
386	19	4	0.10271815	5.9941733	4.5674467	47.154436
387	19	4	0.10271815	6.2321359	2.8836578	46.66153
388	19	4	0.10271815	5.3789335	4.0002415	45.592551
389	19	4	0.10271815	2.3536922	4.2976969	47.733874
390	19	4	0.10271815	3.1437066	4.8879004	46.264505
391	19	4	0.10271815	3.7634501	5.3681332	47.84667
392	19	4	0.10271815	4.8763576	3.7478375	49.293985
393	19	4	0.10271815	3.5690194	2.5503242	49.168987
394	19	4	0.10271815	5.2226192	2.1065371	48.73095
395	19	4	0.12002882	3.1377262	2.6072621	45.585389
396	19	4	0.12002882	2.7094436	1.8299796	47.085671
397	19	5	0.045879088	3.8888082	0.27049411	45.592432
398	19	5	0.045879088	5.2811664	1.3364768	45.481291
399	19	6	0.44087953	5.5695552	-0.40133968	47.09095
400	20	1	0.091163382	36.565144	24.989045	30.522513
401	20	2	-0.60549378	35.704062	23.861668	30.011775
402	20	1	0.091163382	35.553477	22.835956	31.096141
403	20	1	0.091163382	36.403384	23.233242	28.844097
404	20	1	0.090200476	34.329751	24.355938	29.57103
405	20	1	0.1250061	34.262502	25.805807	28.993227
406	20	3	-0.58036166	35.202732	26.038983	27.9372
407	20	4	0.10271815	37.54298	24.61715	30.843172
408	20	4	0.10271815	36.754143	25.722647	29.732959
409	20	4	0.10271815	36.095784	25.501654	31.367629
410	20	4	0.10271815	34.954987	21.986647	30.752964
411	20	4	0.10271815	35.068326	23.26535	31.977923
412	20	4	0.10271815	36.531534	22.455885	31.406367
413	20	4	0.10271815	37.387874	22.854109	29.134486
414	20	4	0.10271815	35.822847	22.407103	28.422482
415	20	4	0.10271815	36.570928	23.971043	28.053613
416	20	4	0.12002882	33.639977	24.307501	30.419061
417	20	4	0.12002882	33.923075	23.668175	28.823442
418	20	5	0.045879088	33.249621	26.008012	28.632016
419	20	5	0.045879088	34.449313	26.52247	29.798698
420	20	6	0.44087953	34.962029	25.627999	27.086174
421	21	1	0.091163382	8.030569	41.021328	26.264925
422	21	2	-0.60549378	7.1817631	42.259836	26.338754
423	21	1	0.091163382	5.7552803	41.840835	26.516509
424	21	1	0.091163382	7.3171395	43.018489	25.050507
425	21	1	0.090200476	7.5932395	43.149719	27.507513
426	21	1	0.1250061	9.1193688	43.200269	27.818789
427	21	3	-0.58036166	9.90771	43.521805	26.663766
428	21	4	0.10271815	7.7106464	40.381441	25.436985
429	21	4	0.10271815	9.0827554	41.274467	26.103332
430	21	4	0.10271815	7.9616123	40.439053	27.188768
431	21	4	0.10271815	5.0922745	42.707305	26.599808
432	21	4	0.10271815	5.6382674	41.240692	27.42394
433	21	4	0.10271815	5.4218924	41.242166	25.663435
434	21	4	0.10271815	6.9979692	42.403178	24.203858
435	21	4	0.10271815	6.7153525	43.932276	25.062308
436	21	4	0.10271815	8.3583516	43.30482	24.873922
437	21	4	0.12002882	7.0813984	42.819228	28.416402
438	21	4	0.12002882	7.2369313	44.169855	27.335312
439	21	5	0.045879088	9.3079549	43.93187	28.610296
440	21	5	0.045879088	9.4381744	42.23094	28.213816
441	21	6	0.44087953	9.9537003	44.477339	26.474206
442	22	1	0.091163382	28.38151	12.261525	4.9150044
443	22	2	-0.60549378	27.526093	12.338718	6.1454272
444	22	1	0.091163382	27.967541	11.27847	7.1046841
445	22	1	0.091163382	26.093099	12.072778	5.7746065
446	22	1	0.090200476	27.670653	13.708435	6.8052644
447	22	1	0.1250061	27.124617	14.912416	5.9852785
448	22	3	-0.58036166	25.691886	14.923519	5.9475803
449	22	4	0.10271815	28.337941	11.260523	4.4752485
450	22	4	0.10271815	28.046637	12.979207	4.1599667
451	22	4	0.10271815	29.427643	12.475253	5.1541972
452	22	4	0.10271815	27.406001	11.339962	8.0417967
453	22	4	0.10271815	29.034982	11.37417	7.3253655
454	22	4	0.10271815	27.791953	10.281807	6.6886044
455	22	4	0.10271815	25.972571	11.057665	5.3843391
456	22	4	0.10271815	25.438254	12.178665	6.6448104
457	22	4	0.10271815	25.748162	12.779173	5.0134778
458	22	4	0.12002882	28.728743	13.897165	7.0104843
459	22	4	0.12002882	27.170897	13.7122	7.7786702
460	22	5	0.045879088	27.473435	15.842618	6.4439064
461	22	5	0.045879088	27.526436	14.890823	4.96775
462	22	6	0.44087953	25.288277	15.195327	6.7927533
463	23	1	0.091163382	50.239553	4.7511196	27.150698
464	23	2	-0.60549378	48.883867	5.3971416	27.232287
465	23	1	0.091163382	48.222971	4.9910942	28.514857
466	23	1	0.091163382	48.03431	4.9267864	26.085436
467	23	1	0.090200476	48.984737	6.917727	27.184253
468	23	1	0.1250061	50.068583	7.5077385	26.234665
469	23	3	-0.58036166	49.925599	7.0232558	24.897177
470	23	4	0.10271815	50.159502	3.6631775	27.235918
471	23	4	0.10271815	50.723534	4.9753037	26.195297
472	23	4	0.10271815	50.891657	5.1066911	27.954199
473	23	4	0.10271815	47.201791	5.381186	28.562958
474	23	4	0.10271815	48.773227	5.370428	29.381237
475	23	4	0.10271815	48.169827	3.9014524	28.599396
476	23	4	0.10271815	47.858882	3.8480675	26.139095
477	23	4	0.10271815	47.06593	5.4362255	26.084921
478	23	4	0.10271815	48.514547	5.14341	25.12641
479	23	4	0.12002882	49.168077	7.3045659	28.191245
480	23	4	0.12002882	48.017607	7.3327541	26.884742
481	23	5	0.045879088	49.990325	8.599143	26.234601
482	23	5	0.045879088	51.067395	7.2622943	26.60805
483	23	6	0.44087953	49.060526	7.245869	24.50578
484	24	1	0.091163382	19.688537	32.539985	35.644894
485	24	2	-0.60549378	19.088312	31.593399	36.643069
486	24	1	0.091163382	17.713439	32.066548	37.002451
487	24	1	0.091163382	19.933323	31.564524	37.885981
488	24	1	0.090200476	18.972855	30.196869	36.053698
489	24	1	0.1250061	20.23777	29.659774	35.331247
490	24	3	-0.58036166	21.349962	29.56955	36.22637
491	24	4	0.10271815	19.710845	33.559942	36.040466
492	24	4	0.10271815	20.713825	32.247398	35.398993
493	24	4	0.10271815	19.106594	32.543435	34.718275
494	24	4	0.10271815	17.241656	31.376548	37.708573
495	24	4	0.10271815	17.080745	32.135026	36.112342
496	24	4	0.10271815	17.750375	33.05135	37.477944
497	24	4	0.10271815	19.905058	32.527463	38.40486
498	24	4	0.10271815	19.570875	30.799193	38.578937
499	24	4	0.10271815	20.977752	31.339316	37.649896
500	24	4	0.12002882	18.148453	30.180676	35.334404
501	24	4	0.12002882	18.696326	29.487388	36.839483
502	24	5	0.045879088	20.024221	28.670537	34.915199
503	24	5	0.045879088	20.484982	30.304861	34.482696
504	24	6	0.44087953	22.198274	29.451964	35.759857
505	25	1	0.091163382	22.983491	49.089413	27.190983
506	25	2	-0.60549378	22.206874	49.320464	25.931215
507	25	1	0.091163382	22.744915	50.545692	25.250649
508	25	1	0.091163382	20.761278	49.550319	26.25838
509	25	1	0.090200476	22.386932	48.13549	24.999025
510	25	1	0.1250061	21.787355	46.792655	25.504093
511	25	3	-0.58036166	20.367384	46.752849	25.316403
512	25	4	0.10271815	23.139045	50.026765	27.733624
513	25	4	0.10271815	22.463455	48.386335	27.848656
514	25	4	0.10271815	23.969154	48.673162	26.961873
515	25	4	0.10271815	22.211456	50.75223	24.317884
516	25	4	0.10271815	23.801897	50.41954	24.997342
517	25	4	0.10271815	22.662294	51.430788	25.888669
518	25	4	0.10271815	20.641336	50.423307	26.907067
519	25	4	0.10271815	20.181577	49.726353	25.347202
520	25	4	0.10271815	20.334952	48.682289	26.770296
521	25	4	0.12002882	23.455918	47.984586	24.820733
522	25	4	0.12002882	21.965408	48.357339	24.013944
523	25	5	0.045879088	22.238724	45.968761	24.943068
524	25	5	0.045879088	22.036736	46.634941	26.557765
525	25	6	0.44087953	20.125902	46.518841	24.400966
526	26	1	0.091163382	35.815632	-3.4776568	32.469354
527	26	2	-0.60549378	36.627398	-2.6301607	33.392603
528	26	1	0.091163382	38.07332	-2.8672996	33.105934
529	26	1	0.091163382	36.350846	-3.0489171	34.805057
530	26	1	0.090200476	36.32092	-1.1559358	33.196237
531	26	1	0.1250061	34.818699	-0.75394146	33.27296
532	26	3	-0.58036166	34.309421	-0.88406354	34.601562
533	26	4	0.10271815	36.12195	-4.5253393	32.545652
534	26	4	0.10271815	34.752305	-3.4183037	32.720542
535	26	4	0.10271815	35.948608	-3.1716165	31.427267
536	26	4	0.10271815	38.70858	-2.313364	33.803711
537	26	4	0.10271815	38.329074	-2.5682744	32.084923
538	26	4	0.10271815	38.306999	-3.9310807	33.211064
539	26	4	0.10271815	36.657405	-4.0864372	34.968958
540	26	4	0.10271815	36.910095	-2.4246542	35.508494
541	26	4	0.10271815	35.285702	-2.9663703	35.04158
542	26	4	0.12002882	36.702995	-0.84135786	32.220354
543	26	4	0.12002882	36.877329	-0.56180518	33.927474
544	26	5	0.045879088	34.715335	0.2892665	32.959399
545	26	5	0.045879088	34.221044	-1.3499901	32.576668
546	26	6	0.44087953	34.811716	-0.34491211	35.240395
547	27	1	0.091163382	10.101949	57.055988	45.257998
548	27	2	-0.60549378	10.126411	56.055093	46.376762
549	27	1	0.091163382	10.090636	56.788492	47.681456
550	27	1	0.091163382	11.384147	55.247116	46.303663
551	27	1	0.090200476	8.9210945	55.129285	46.302772
552	27	1	0.1250061	8.5186738	54.632268	44.883714
553	27	3	-0.58036166	9.604196	53.990836	44.205499
554	27	4	0.10271815	10.939723	57.755404	45.337024
555	27	4	0.10271815	10.170938	56.553268	44.288559
556	27	4	0.10271815	9.1740185	57.635326	45.282512
557	27	4	0.10271815	10.184126	56.096683	48.524036
558	27	4	0.10271815	9.152891	57.342153	47.788167
559	27	4	0.10271815	10.914005	57.506127	47.747416
560	27	4	0.10271815	12.265464	55.885363	46.418624
561	27	4	0.10271815	11.405783	54.495687	47.098761
562	27	4	0.10271815	11.456866	54.725771	45.344396
563	27	4	0.12002882	8.0526334	55.637383	46.732769
564	27	4	0.12002882	9.10155	54.253001	46.932731
565	27	5	0.045879088	7.6862901	53.928394	44.978542
566	27	5	0.045879088	8.1518501	55.470786	44.284039
567	27	6	0.44087953	9.3370754	53.600368	43.352695
568	28	1	0.091163382	44.68174	48.343682	51.872482
569	28	2	-0.60549378	45.511832	47.094569	51.804905
570	28	1	0.091163382	46.64628	47.334685	50.855575
571	28	1	0.091163382	44.678898	45.967479	51.280107
572	28	1	0.090200476	46.080322	46.771593	53.176246
573	28	1	0.1250061	45.030298	46.356583	54.247408
574	28	3	-0.58036166	44.594417	45.007868	54.038658
575	28	4	0.10271815	44.227948	48.561254	50.900874
576	28	4	0.10271815	43.873348	48.246784	52.603512
577	28	4	0.10271815	45.298009	49.20435	52.149529
578	28	4	0.10271815	47.265902	46.439395	50.746903