Title

10000 atoms
9000 bonds
14000 angles
22000 dihedrals
0 impropers

4 atom types
4 bond types
3 angle types
8 dihedral types
-1.551430523 58.44856948 xlo xhi
-2.211463004 57.788537 ylo yhi
-1.084818989 58.91518101 zlo zhi
0.0 0.0 0.0 xy xz yz

Masses

1	15.99943
2	12.01078
3	1.007947
4	1.007947


Pair Coeffs

1	0.20947353	2.99716
2	0.10884061	3.3795318
3	1.2326e-05	0.53453923
4	0.016409246	2.5832257

Bond Coeffs

1 harmonic	258.9527804663	1.426323519316
2 harmonic	538.350794015	0.9752301008088
3 harmonic	215.30139056395	1.533627603844
4 harmonic	357.8191474159	1.094206460752


Angle Coeffs

1 harmonic	66.75631831595	109.9380527584
2 harmonic	119.8958895535	112.8736161145
3 harmonic	36.776637850755	108.3543135269


Dihedral Coeffs

1 fourier 1	-0.01533770820035	3	0
2 fourier 1	0.4191503124266	2	0
3 fourier 1	0.1311347012225	3	0
4 fourier 1	0.436546671918	1	0
5 fourier 1	0.4431584714139	3	0
6 fourier 1	0.1140296769156	1	0
7 fourier 1	0.3636269884643333	3	0
8 fourier 1	0.2279946533057	3	0


Atoms

1	1	1	-0.5987395	9.9305141	15.491753	51.85905
2	1	2	0.11444091	9.2835486	16.682845	51.389661
3	1	2	0.11444091	7.8568333	16.772454	51.965575
4	1	1	-0.5987395	7.1940988	17.948843	51.483045
5	1	3	0.40389854	9.5906627	14.683418	51.432219
6	1	4	0.040200026	9.8562706	17.561105	51.702614
7	1	4	0.040200026	9.2512888	16.68067	50.295935
8	1	4	0.040200026	7.9099691	16.801435	53.058105
9	1	4	0.040200026	7.2849125	15.880727	51.691685
10	1	3	0.40389854	7.023021	17.916884	50.523462
11	2	1	-0.5987395	38.831608	48.252978	51.209841
12	2	2	0.11444091	39.334776	48.52922	49.892406
13	2	2	0.11444091	38.167114	48.781257	48.915706
14	2	1	-0.5987395	38.620188	48.778982	47.555223
15	2	3	0.40389854	39.539671	48.210583	51.879115
16	2	4	0.040200026	39.984808	49.409018	49.918861
17	2	4	0.040200026	39.93485	47.682462	49.545703
18	2	4	0.040200026	37.69769	49.740353	49.154601
19	2	4	0.040200026	37.410674	48.000069	49.037485
20	2	3	0.40389854	38.870165	47.886915	47.250562
21	3	1	-0.5987395	3.3686695	16.356255	6.3897216
22	3	2	0.11444091	3.8658926	15.897443	7.6514536
23	3	2	0.11444091	4.5492992	14.527208	7.4774694
24	3	1	-0.5987395	5.1534492	14.105153	8.7078625
25	3	3	0.40389854	2.973533	17.246577	6.4374733
26	3	4	0.040200026	4.588314	16.618907	8.0450082
27	3	4	0.040200026	3.0438074	15.81616	8.3689892
28	3	4	0.040200026	5.3193599	14.603521	6.7038602
29	3	4	0.040200026	3.8170934	13.784811	7.1457911
30	3	3	0.40389854	4.5011982	13.891585	9.4007182
31	4	1	-0.5987395	45.218172	30.840626	6.5714145
32	4	2	0.11444091	45.061665	29.430985	6.329366
33	4	2	0.11444091	43.663592	29.119291	5.7498544
34	4	1	-0.5987395	43.441081	27.703681	5.7390767
35	4	3	0.40389854	46.07832	31.061015	6.9747287
36	4	4	0.040200026	45.832715	29.081392	5.6361419
37	4	4	0.040200026	45.191283	28.888154	7.2705472
38	4	4	0.040200026	43.57686	29.522197	4.7362313
39	4	4	0.040200026	42.89741	29.599018	6.366387
40	4	3	0.40389854	42.502847	27.467344	5.6168109
41	5	1	-0.5987395	50.811882	15.694302	49.386868
42	5	2	0.11444091	52.199855	15.810087	49.728637
43	5	2	0.11444091	52.348509	16.228629	51.206374
44	5	1	-0.5987395	53.684726	16.682713	51.465335
45	5	3	0.40389854	50.665455	15.424829	48.461108
46	5	4	0.040200026	52.711253	14.857042	49.562912
47	5	4	0.040200026	52.671876	16.558392	49.084802
48	5	4	0.040200026	52.100987	15.382153	51.854057
49	5	4	0.040200026	51.644387	17.032807	51.440468
50	5	3	0.40389854	53.875909	17.540641	51.042848
51	6	1	-0.5987395	9.8340374	7.4609637	11.066762
52	6	2	0.11444091	10.084674	8.7177712	11.707845
53	6	2	0.11444091	8.9768344	9.0289432	12.734675
54	6	1	-0.5987395	7.6874417	8.8183647	12.146598
55	6	3	0.40389854	10.557358	7.186752	10.472875
56	6	4	0.040200026	11.058238	8.7024486	12.207072
57	6	4	0.040200026	10.119113	9.5127064	10.956726
58	6	4	0.040200026	9.0727568	10.065075	13.07308
59	6	4	0.040200026	9.0881896	8.3858615	13.612932
60	6	3	0.40389854	7.6054043	9.2465752	11.27425
61	7	1	-0.5987395	7.6095015	21.235657	30.224087
62	7	2	0.11444091	7.7908289	22.267833	31.207781
63	7	2	0.11444091	8.0731905	23.617237	30.516663
64	7	1	-0.5987395	8.1659013	24.68468	31.468096
65	7	3	0.40389854	7.4606496	20.36047	30.627794
66	7	4	0.040200026	6.8904334	22.351799	31.823838
67	7	4	0.040200026	8.6247385	22.008772	31.867151
68	7	4	0.040200026	7.2610462	23.838527	29.817564
69	7	4	0.040200026	9.002552	23.551319	29.942877
70	7	3	0.40389854	8.8834554	24.562619	32.117178
71	8	1	-0.5987395	50.551171	50.27998	7.1473235
72	8	2	0.11444091	51.852975	50.832763	6.9213414
73	8	2	0.11444091	52.255507	51.726899	8.1146497
74	8	1	-0.5987395	53.536124	52.336259	7.8885597
75	8	3	0.40389854	50.211482	49.773307	6.386416
76	8	4	0.040200026	52.582898	50.026999	6.797874
77	8	4	0.040200026	51.843996	51.426864	6.002509
78	8	4	0.040200026	52.290792	51.125679	9.0282023
79	8	4	0.040200026	51.500306	52.505498	8.2586735
80	8	3	0.40389854	53.561206	52.872853	7.0746076
81	9	1	-0.5987395	5.3687853	23.880389	48.118954
82	9	2	0.11444091	5.1428586	25.138068	48.782978
83	9	2	0.11444091	6.2232089	26.168959	48.378444
84	9	1	-0.5987395	5.7767713	27.516034	48.619428
85	9	3	0.40389854	4.6084213	23.27363	48.188071
86	9	4	0.040200026	4.1572657	25.52073	48.501086
87	9	4	0.040200026	5.1426744	25.000548	49.868507
88	9	4	0.040200026	6.4378202	26.059265	47.31111
89	9	4	0.040200026	7.1519279	25.972242	48.922567
90	9	3	0.40389854	5.7024753	27.738788	49.565973
91	10	1	-0.5987395	50.899425	8.7992513	30.780163
92	10	2	0.11444091	51.379852	10.136621	30.994105
93	10	2	0.11444091	52.914333	10.20276	30.826201
94	10	1	-0.5987395	53.391309	11.547608	31.002233
95	10	3	0.40389854	49.931736	8.728388	30.878386
96	10	4	0.040200026	50.905595	10.813658	30.277178
97	10	4	0.040200026	51.105733	10.4686	32.000055
98	10	4	0.040200026	53.183427	9.8499966	29.825983
99	10	4	0.040200026	53.397732	9.542197	31.552336
100	10	3	0.40389854	53.323774	11.863543	31.922402
101	11	1	-0.5987395	49.837074	17.528886	17.038909
102	11	2	0.11444091	50.236273	18.80924	16.527481
103	11	2	0.11444091	50.050726	18.87563	14.996321
104	11	1	-0.5987395	51.031933	18.058088	14.342954
105	11	3	0.40389854	50.272164	16.784496	16.583197
106	11	4	0.040200026	49.640141	19.593551	17.003688
107	11	4	0.040200026	51.284003	19.003227	16.77631
108	11	4	0.040200026	50.161586	19.91135	14.661237
109	11	4	0.040200026	49.042296	18.547711	14.72646
110	11	3	0.40389854	51.942105	18.361864	14.517251
111	12	1	-0.5987395	18.90853	27.417095	19.075258
112	12	2	0.11444091	18.271717	27.252169	17.803336
113	12	2	0.11444091	16.969533	28.080032	17.760923
114	12	1	-0.5987395	16.252151	27.841558	16.541841
115	12	3	0.40389854	19.693509	26.850235	19.191725
116	12	4	0.040200026	18.944361	27.575309	17.003075
117	12	4	0.040200026	18.040073	26.194451	17.64565
118	12	4	0.040200026	17.203882	29.144843	17.853369
119	12	4	0.040200026	16.336703	27.802706	18.609395
120	12	3	0.40389854	16.741242	28.144608	15.754415
121	13	1	-0.5987395	7.0514017	10.079404	42.447066
122	13	2	0.11444091	5.6878787	10.377697	42.776423
123	13	2	0.11444091	5.587697	11.38256	43.938994
124	13	1	-0.5987395	4.2654917	11.348598	44.482379
125	13	3	0.40389854	7.1155196	9.6557951	41.570973
126	13	4	0.040200026	5.1759058	10.790261	41.901803
127	13	4	0.040200026	5.1785898	9.4467169	43.043237
128	13	4	0.040200026	5.824039	12.389799	43.582768
129	13	4	0.040200026	6.3108808	11.129738	44.720259
130	13	3	0.40389854	4.012033	10.461907	44.799595
131	14	1	-0.5987395	38.620605	27.618711	25.771799
132	14	2	0.11444091	37.986281	26.432533	26.252823
133	14	2	0.11444091	36.689048	26.746428	27.018406
134	14	1	-0.5987395	36.056561	25.518949	27.407565
135	14	3	0.40389854	39.480021	27.423954	25.353994
136	14	4	0.040200026	37.76058	25.776494	25.40668
137	14	4	0.040200026	38.676457	25.902441	26.916106
138	14	4	0.040200026	36.012373	27.327359	26.384435
139	14	4	0.040200026	36.920702	27.343857	27.905369
140	14	3	0.40389854	36.661515	24.921284	27.884972
141	15	1	-0.5987395	18.742739	36.2502	5.4900682
142	15	2	0.11444091	17.535328	35.534241	5.7661223
143	15	2	0.11444091	16.619656	35.481734	4.530251
144	15	1	-0.5987395	15.47498	34.669034	4.8198411
145	15	3	0.40389854	19.230286	36.453202	6.3099313
146	15	4	0.040200026	17.78258	34.517853	6.0872287
147	15	4	0.040200026	17.003626	36.023073	6.5880853
148	15	4	0.040200026	17.165613	35.064299	3.6788008
149	15	4	0.040200026	16.300086	36.493316	4.2621776
150	15	3	0.40389854	14.957572	35.005972	5.5747277
151	16	1	-0.5987395	54.097223	17.106698	18.756465
152	16	2	0.11444091	53.246884	18.228935	19.010581
153	16	2	0.11444091	53.796544	19.479709	18.290111
154	16	1	-0.5987395	52.936692	20.610635	18.505393
155	16	3	0.40389854	53.781638	16.28516	19.17665
156	16	4	0.040200026	52.234759	18.009615	18.657326
157	16	4	0.040200026	53.194237	18.415112	20.087547
158	16	4	0.040200026	53.875632	19.278768	17.217424
159	16	4	0.040200026	54.801655	19.704223	18.659751
160	16	3	0.40389854	52.845883	20.840936	19.448682
161	17	1	-0.5987395	7.1040231	6.5783226	48.756495
162	17	2	0.11444091	6.9858623	7.1925098	50.052171
163	17	2	0.11444091	6.1768377	8.4975654	49.952574
164	17	1	-0.5987395	6.8304449	9.4012332	49.056034
165	17	3	0.40389854	7.6391339	5.7634324	48.782754
166	17	4	0.040200026	6.4885533	6.5062648	50.7443
167	17	4	0.040200026	7.9801852	7.4068493	50.455494
168	17	4	0.040200026	6.0865223	8.9569223	50.941577
169	17	4	0.040200026	5.167923	8.2741773	49.592748
170	17	3	0.40389854	7.1954644	8.942101	48.276906
171	18	1	-0.5987395	34.214501	23.580198	27.787285
172	18	2	0.11444091	33.034527	23.494647	26.983345
173	18	2	0.11444091	32.229655	22.236185	27.365661
174	18	1	-0.5987395	31.052265	22.127616	26.555431
175	18	3	0.40389854	34.757984	24.363232	27.580953
176	18	4	0.040200026	32.419105	24.386635	27.134662
177	18	4	0.040200026	33.312314	23.449435	25.925951
178	18	4	0.040200026	31.945996	22.288842	28.421149
179	18	4	0.040200026	32.852757	21.346912	27.230651
180	18	3	0.40389854	31.25519	22.067988	25.603406
181	19	1	-0.5987395	10.8481	40.079961	25.608242
182	19	2	0.11444091	10.230467	41.190953	26.281796
183	19	2	0.11444091	11.220886	42.369771	26.398034
184	19	1	-0.5987395	11.019151	43.079286	27.629981
185	19	3	0.40389854	10.390266	39.236333	25.780797
186	19	4	0.040200026	9.3267399	41.509614	25.753572
187	19	4	0.040200026	9.9238849	40.875721	27.283754
188	19	4	0.040200026	11.101761	43.044391	25.54481
189	19	4	0.040200026	12.245637	41.986876	26.374285
190	19	3	0.40389854	11.052366	42.494082	28.409419
191	20	1	-0.5987395	25.640836	9.7528267	4.0852511
192	20	2	0.11444091	25.767703	11.184154	4.1044781
193	20	2	0.11444091	25.212226	11.767372	5.4184359
194	20	1	-0.5987395	25.466986	13.175818	5.4677379
195	20	3	0.40389854	25.921869	9.3650007	3.2357284
196	20	4	0.040200026	26.822138	11.457813	4.0016961
197	20	4	0.040200026	25.226738	11.616731	3.2574102
198	20	4	0.040200026	25.693133	11.274471	6.2687677
199	20	4	0.040200026	24.136291	11.579404	5.4841733
200	20	3	0.40389854	25.191755	13.586274	6.3084882
201	21	1	-0.5987395	49.43398	6.5163821	28.627734
202	21	2	0.11444091	50.28367	6.6365075	27.484157
203	21	2	0.11444091	50.995054	5.300262	27.204487
204	21	1	-0.5987395	51.685996	5.3623927	25.949283
205	21	3	0.40389854	48.848777	7.2896892	28.730786
206	21	4	0.040200026	49.679565	6.9142038	26.615117
207	21	4	0.040200026	51.021142	7.4281192	27.647798
208	21	4	0.040200026	50.253253	4.4967914	27.166348
209	21	4	0.040200026	51.697321	5.0725633	28.012116
210	21	3	0.40389854	52.456284	5.9600616	25.972204
211	22	1	-0.5987395	17.232147	30.101042	34.744999
212	22	2	0.11444091	16.781713	29.674032	36.036868
213	22	2	0.11444091	15.255662	29.445484	36.01754
214	22	1	-0.5987395	14.795125	28.985131	37.29358
215	22	3	0.40389854	18.191282	30.275075	34.715602
216	22	4	0.040200026	17.290261	28.746181	36.315718
217	22	4	0.040200026	17.031076	30.433528	36.784043
218	22	4	0.040200026	15.003728	28.703971	35.253356
219	22	4	0.040200026	14.749019	30.380104	35.758526
220	22	3	0.40389854	14.961271	29.63186	38.004375
221	23	1	-0.5987395	17.858008	46.658645	26.452622
222	23	2	0.11444091	18.598588	45.63993	27.145903
223	23	2	0.11444091	17.775484	45.058169	28.31604
224	23	1	-0.5987395	18.510056	44.023018	28.98289
225	23	3	0.40389854	18.371376	47.060027	25.727065
226	23	4	0.040200026	18.861523	44.839578	26.447625
227	23	4	0.040200026	19.529862	46.064296	27.533109
228	23	4	0.040200026	16.83032	44.6524	27.942803
229	23	4	0.040200026	17.540762	45.855527	29.027669
230	23	3	0.40389854	18.636885	43.225417	28.436239
231	24	1	-0.5987395	35.872312	7.0528042	32.56012
232	24	2	0.11444091	36.04687	5.7772291	33.194997
233	24	2	0.11444091	36.314275	4.6739063	32.147627
234	24	1	-0.5987395	36.221888	3.3767965	32.745285
235	24	3	0.40389854	35.014884	7.1352422	32.10283
236	24	4	0.040200026	36.887326	5.8234328	33.894131
237	24	4	0.040200026	35.149982	5.5349994	33.773103
238	24	4	0.040200026	37.309711	4.8146874	31.715684
239	24	4	0.040200026	35.58629	4.7424689	31.333611
240	24	3	0.40389854	35.301282	3.1063351	32.91971
241	25	1	-0.5987395	4.4317231	56.976042	46.683478
242	25	2	0.11444091	5.2068466	55.775442	46.601877
243	25	2	0.11444091	5.2751333	55.09861	47.986031
244	25	1	-0.5987395	5.8120513	53.772278	47.872214
245	25	3	0.40389854	4.3329918	57.42826	45.825086
246	25	4	0.040200026	4.7405627	55.094242	45.883665
247	25	4	0.040200026	6.2170535	56.00112	46.247139
248	25	4	0.040200026	4.2700034	55.045238	48.41516
249	25	4	0.040200026	5.8937621	55.69798	48.660817
250	25	3	0.40389854	5.2865922	53.206482	47.276521
251	26	1	-0.5987395	44.184771	49.91971	52.268319
252	26	2	0.11444091	45.533466	49.784265	52.732124
253	26	2	0.11444091	45.547953	49.232588	54.173865
254	26	1	-0.5987395	46.894636	49.054432	54.639263
255	26	3	0.40389854	44.125013	50.269575	51.359959
256	26	4	0.040200026	46.08027	49.102955	52.07325
257	26	4	0.040200026	46.033053	50.757384	52.70503
258	26	4	0.040200026	45.023785	48.272443	54.199595
259	26	4	0.040200026	45.015583	49.919496	54.838715
260	26	3	0.40389854	47.379804	49.894328	54.740572
261	27	1	-0.5987395	24.183326	41.77639	36.167493
262	27	2	0.11444091	25.444107	42.431946	36.352155
263	27	2	0.11444091	25.572131	43.603063	35.357571
264	27	1	-0.5987395	26.934369	44.033136	35.240264
265	27	3	0.40389854	24.092448	41.394014	35.274959
266	27	4	0.040200026	25.535185	42.801366	37.37808
267	27	4	0.040200026	26.248868	41.710916	36.179631
268	27	4	0.040200026	24.939573	44.435563	35.680227
269	27	4	0.040200026	25.215654	43.279705	34.374897
270	27	3	0.40389854	27.048442	44.720273	34.557676
271	28	1	-0.5987395	10.071083	26.889508	26.968977
272	28	2	0.11444091	10.913281	27.902708	27.528503
273	28	2	0.11444091	12.011399	28.292556	26.519787
274	28	1	-0.5987395	12.95705	29.168484	27.140086
275	28	3	0.40389854	9.3413061	26.640506	27.566063
276	28	4	0.040200026	10.319757	28.783822	27.79053
277	28	4	0.040200026	11.370397	27.525108	28.44815
278	28	4	0.040200026	11.561071	28.781023	25.650365
279	28	4	0.040200026	12.525849	27.392559	26.169596
280	28	3	0.40389854	13.37687	28.763225	27.921498
281	29	1	-0.5987395	2.0524579	37.911546	46.194034
282	29	2	0.11444091	1.8035765	36.500037	46.168251
283	29	2	0.11444091	0.59613541	36.159432	45.27081
284	29	1	-0.5987395	0.23807364	34.777226	45.438647
285	29	3	0.40389854	2.7380827	38.159575	46.841717
286	29	4	0.040200026	2.6893839	35.97198	45.802474
287	29	4	0.040200026	1.6038737	36.155765	47.18751
288	29	4	0.040200026	0.84310807	36.359994	44.223881
289	29	4	0.040200026	-0.25445325	36.791768	45.542727
290	29	3	0.40389854	0.011476275	34.5591	46.361771
291	30	1	-0.5987395	25.483491	24.694817	30.423615
292	30	2	0.11444091	24.894271	25.78876	31.139066
293	30	2	0.11444091	24.556022	26.954465	30.185423
294	30	1	-0.5987395	24.077721	28.086662	30.932043
295	30	3	0.40389854	25.612829	23.911557	30.990062
296	30	4	0.040200026	23.98124	25.451813	31.639194
297	30	4	0.040200026	25.589743	26.132128	31.910884
298	30	4	0.040200026	23.793511	26.632962	29.469533
299	30	4	0.040200026	25.448029	27.238221	29.618771
300	30	3	0.40389854	24.754434	28.450971	31.532388
301	31	1	-0.5987395	6.8460608	28.251441	3.7066269
302	31	2	0.11444091	6.9261122	29.472194	2.9504725
303	31	2	0.11444091	6.5666604	30.688031	3.836804
304	31	1	-0.5987395	6.4450854	31.871414	3.0368581
305	31	3	0.40389854	7.3040128	27.505751	3.2761437
306	31	4	0.040200026	7.9363257	29.603751	2.5511608
307	31	4	0.040200026	6.2399459	29.416165	2.0999877
308	31	4	0.040200026	7.3418957	30.832107	4.5954481
309	31	4	0.040200026	5.6223011	30.506375	4.358795
310	31	3	0.40389854	5.7173234	31.813252	2.3902836
311	32	1	-0.5987395	11.213824	25.021887	20.197141
312	32	2	0.11444091	10.62746	24.248424	21.245513
313	32	2	0.11444091	10.442669	22.788143	20.797112
314	32	1	-0.5987395	10.307742	21.956856	21.955223
315	32	3	0.40389854	11.65747	25.817156	20.546155
316	32	4	0.040200026	11.29132	24.280868	22.114723
317	32	4	0.040200026	9.6695358	24.679661	21.551621
318	32	4	0.040200026	11.314833	22.467403	20.219405
319	32	4	0.040200026	9.5657623	22.691553	20.149815
320	32	3	0.40389854	9.4619912	22.099156	22.419498
321	33	1	-0.5987395	43.728004	12.179337	24.34953
322	33	2	0.11444091	44.25694	10.876646	24.107857
323	33	2	0.11444091	45.789781	10.934575	23.932745
324	33	1	-0.5987395	46.345706	9.6171141	23.992436
325	33	3	0.40389854	44.098463	12.583406	25.156116
326	33	4	0.040200026	44.00907	10.231395	24.95609
327	33	4	0.040200026	43.795171	10.44963	23.212473
328	33	4	0.040200026	46.231017	11.54822	24.723971
329	33	4	0.040200026	46.038151	11.404053	22.976091
330	33	3	0.40389854	46.042104	9.0450925	23.263259
331	34	1	-0.5987395	38.287585	14.407583	4.4505057
332	34	2	0.11444091	36.875412	14.182498	4.5849225
333	34	2	0.11444091	36.520858	13.695316	6.0066605
334	34	1	-0.5987395	37.044048	12.378424	6.2422127
335	34	3	0.40389854	38.551128	14.604564	3.5324529
336	34	4	0.040200026	36.338711	15.112467	4.3742147
337	34	4	0.040200026	36.542902	13.440263	3.852931
338	34	4	0.040200026	35.432627	13.684275	6.1203378
339	34	4	0.040200026	36.911941	14.395124	6.7513824
340	34	3	0.40389854	38.009675	12.324591	6.1166817
341	35	1	-0.5987395	11.949345	32.321966	44.046264
342	35	2	0.11444091	12.286291	33.675773	44.365726
343	35	2	0.11444091	13.531257	34.152255	43.582482
344	35	1	-0.5987395	14.686334	33.34995	43.875251
345	35	3	0.40389854	12.583141	31.67156	44.401722
346	35	4	0.040200026	11.440619	34.325013	44.119525
347	35	4	0.040200026	12.461739	33.76931	45.441718
348	35	4	0.040200026	13.739448	35.193739	43.845654
349	35	4	0.040200026	13.3228	34.128287	42.508583
350	35	3	0.40389854	14.63245	32.45013	43.503079
351	36	1	-0.5987395	49.368534	41.990047	33.719184
352	36	2	0.11444091	47.94241	42.07984	33.721118
353	36	2	0.11444091	47.510967	43.546305	33.855369
354	36	1	-0.5987395	46.08242	43.661628	33.87094
355	36	3	0.40389854	49.677196	41.065168	33.739634
356	36	4	0.040200026	47.546334	41.659236	32.791867
357	36	4	0.040200026	47.540092	41.502795	34.559238
358	36	4	0.040200026	47.918134	44.127436	33.022428
359	36	4	0.040200026	47.923093	43.958454	34.78142
360	36	3	0.40389854	45.673914	43.159771	34.600561
361	37	1	-0.5987395	42.310805	40.327296	8.0062342
362	37	2	0.11444091	42.684975	38.946893	7.9145122
363	37	2	0.11444091	42.376223	38.257558	9.2512089
364	37	1	-0.5987395	42.240376	36.832609	9.1032636
365	37	3	0.40389854	42.563682	40.841794	7.2172886
366	37	4	0.040200026	42.112021	38.466618	7.1155477
367	37	4	0.040200026	43.749132	38.852506	7.6779765
368	37	4	0.040200026	41.43929	38.663898	9.6440542
369	37	4	0.040200026	43.158846	38.491957	9.9791157
370	37	3	0.40389854	43.052135	36.403294	8.7748867
371	38	1	-0.5987395	53.249483	21.976511	52.719126
372	38	2	0.11444091	53.459406	21.352432	51.450138
373	38	2	0.11444091	53.757353	19.85202	51.654968
374	38	1	-0.5987395	54.071631	19.210696	50.4035
375	38	3	0.40389854	53.031392	22.924497	52.649603
376	38	4	0.040200026	52.567782	21.473072	50.827451
377	38	4	0.040200026	54.299936	21.832256	50.939684
378	38	4	0.040200026	52.888379	19.369277	52.112274
379	38	4	0.040200026	54.59774	19.736594	52.346134
380	38	3	0.40389854	54.894905	19.550838	50.006504
381	39	1	-0.5987395	0.32802097	53.214369	41.022034
382	39	2	0.11444091	0.55075172	52.765436	39.674828
383	39	2	0.11444091	1.4001325	51.479053	39.658082
384	39	1	-0.5987395	1.721065	51.122794	38.313029
385	39	3	0.40389854	-0.33578761	53.92715	41.070838
386	39	4	0.040200026	-0.40891722	52.569208	39.187162
387	39	4	0.040200026	1.0578415	53.55083	39.106228
388	39	4	0.040200026	0.84490351	50.665536	40.134735
389	39	4	0.040200026	2.3263083	51.633291	40.219951
390	39	3	0.40389854	2.3605789	51.736569	37.906346
391	40	1	-0.5987395	37.247882	37.380075	34.79799
392	40	2	0.11444091	38.182459	38.345494	34.296715
393	40	2	0.11444091	38.597603	39.321995	35.416334
394	40	1	-0.5987395	39.23979	40.471063	34.852557
395	40	3	0.40389854	36.926827	36.770585	34.107676
396	40	4	0.040200026	39.0677	37.842858	33.895478
397	40	4	0.040200026	37.717021	38.903015	33.478286
398	40	4	0.040200026	39.267256	38.81938	36.12077
399	40	4	0.040200026	37.709637	39.644496	35.968416
400	40	3	0.40389854	38.640344	40.963387	34.261477
401	41	1	-0.5987395	11.232573	25.498013	42.711887
402	41	2	0.11444091	11.954272	25.687354	41.484623
403	41	2	0.11444091	11.330832	26.803041	40.620565
404	41	1	-0.5987395	12.329155	27.401681	39.775965
405	41	3	0.40389854	10.317271	25.186853	42.58347
406	41	4	0.040200026	12.985243	25.965362	41.723576
407	41	4	0.040200026	11.990951	24.752059	40.917907
408	41	4	0.040200026	10.912951	27.578394	41.269784
409	41	4	0.040200026	10.511767	26.397676	40.018821
410	41	3	0.40389854	12.788807	26.763191	39.19965
411	42	1	-0.5987395	9.9750847	30.995502	6.2261522
412	42	2	0.11444091	9.4337088	29.681726	6.4163542
413	42	2	0.11444091	10.44251	28.779068	7.1664423
414	42	1	-0.5987395	10.476753	27.47473	6.5763676
415	42	3	0.40389854	10.796003	30.984178	5.699802
416	42	4	0.040200026	8.4946954	29.734607	6.9755918
417	42	4	0.040200026	9.2043626	29.249117	5.4378146
418	42	4	0.040200026	10.167363	28.711405	8.2233268
419	42	4	0.040200026	11.443951	29.21679	7.113502
420	42	3	0.40389854	10.820036	27.496684	5.663808
421	43	1	-0.5987395	44.305711	22.422409	9.7787297
422	43	2	0.11444091	43.184671	21.717498	10.337448
423	43	2	0.11444091	42.235961	22.69774	11.049469
424	43	1	-0.5987395	41.132736	21.997297	11.635504
425	43	3	0.40389854	44.796243	22.942965	10.441673
426	43	4	0.040200026	42.64576	21.187484	9.5462799
427	43	4	0.040200026	43.541927	20.973554	11.055919
428	43	4	0.040200026	41.869092	23.440752	10.334886
429	43	4	0.040200026	42.783899	23.227592	11.834522
430	43	3	0.40389854	40.507112	21.646054	10.974964
431	44	1	-0.5987395	15.863749	27.024179	31.572373
432	44	2	0.11444091	16.135603	28.169513	32.384841
433	44	2	0.11444091	15.019914	29.218116	32.212043
434	44	1	-0.5987395	14.958653	29.644475	30.842609
435	44	3	0.40389854	16.598401	26.382792	31.571126
436	44	4	0.040200026	16.205593	27.866306	33.433867
437	44	4	0.040200026	17.097657	28.608401	32.103565
438	44	4	0.040200026	15.215468	30.076475	32.86186
439	44	4	0.040200026	14.060084	28.789549	32.515926
440	44	3	0.40389854	14.787468	28.899834	30.236566
441	45	1	-0.5987395	46.260743	34.446912	10.151753
442	45	2	0.11444091	47.2472	33.468342	9.7911686
443	45	2	0.11444091	46.539674	32.292957	9.0799415
444	45	1	-0.5987395	47.397671	31.600852	8.160044
445	45	3	0.40389854	46.625886	35.209763	10.637362
446	45	4	0.040200026	47.979798	33.92297	9.1174489
447	45	4	0.040200026	47.779036	33.111842	10.678492
448	45	4	0.040200026	45.682654	32.683957	8.5232258
449	45	4	0.040200026	46.150455	31.593649	9.82611
450	45	3	0.40389854	48.074851	31.060102	8.6073756
451	46	1	-0.5987395	55.507388	20.954914	34.46229
452	46	2	0.11444091	54.978051	19.652851	34.758463
453	46	2	0.11444091	56.082354	18.760819	35.372303
454	46	1	-0.5987395	55.538759	17.534966	35.895116
455	46	3	0.40389854	54.834037	21.582842	34.140749
456	46	4	0.040200026	54.152198	19.751445	35.469472
457	46	4	0.040200026	54.586625	19.189106	33.847961
458	46	4	0.040200026	56.568284	19.309001	36.18511
459	46	4	0.040200026	56.849303	18.542811	34.622936
460	46	3	0.40389854	55.44415	16.834669	35.223014
461	47	1	-0.5987395	11.936492	53.395643	25.6425
462	47	2	0.11444091	13.240376	53.154092	26.190164
463	47	2	0.11444091	14.149586	52.488217	25.134654
464	47	1	-0.5987395	15.419312	52.156262	25.701358
465	47	3	0.40389854	11.315067	53.773327	26.292324
466	47	4	0.040200026	13.687021	54.098415	26.515822
467	47	4	0.040200026	13.155909	52.503448	27.065845
468	47	4	0.040200026	14.29108	53.165984	24.287364
469	47	4	0.040200026	13.671088	51.577158	24.762774
470	47	3	0.40389854	15.343269	51.526089	26.441755
471	48	1	-0.5987395	9.6536678	36.899593	29.91539
472	48	2	0.11444091	9.3621808	36.707134	28.522453
473	48	2	0.11444091	10.023016	37.819197	27.684815
474	48	1	-0.5987395	9.5261145	37.818465	26.343009
475	48	3	0.40389854	9.404366	36.131179	30.461712
476	48	4	0.040200026	9.7330493	35.732462	28.191152
477	48	4	0.040200026	8.2782149	36.723838	28.37404
478	48	4	0.040200026	11.108963	37.685027	27.682958
479	48	4	0.040200026	9.8040938	38.791285	28.13693
480	48	3	0.40389854	8.5600448	37.947571	26.309352
481	49	1	-0.5987395	36.295781	50.722389	5.1490963
482	49	2	0.11444091	35.450635	51.166506	6.2226361
483	49	2	0.11444091	35.440137	52.704167	6.3630003
484	49	1	-0.5987395	36.731594	53.202219	6.7699814
485	49	3	0.40389854	37.124577	51.231446	5.0780636
486	49	4	0.040200026	34.431026	50.80874	6.0503292
487	49	4	0.040200026	35.790424	50.728559	7.1660525
488	49	4	0.040200026	34.697003	52.987037	7.1146804
489	49	4	0.040200026	35.138323	53.160644	5.4154634
490	49	3	0.40389854	37.145076	52.653227	7.461884
491	50	1	-0.5987395	10.328307	8.0389148	29.583542
492	50	2	0.11444091	9.4562614	9.169485	29.731572
493	50	2	0.11444091	8.0694026	8.7227374	30.247338
494	50	1	-0.5987395	7.3866719	7.9380655	29.257348
495	50	3	0.40389854	9.9712145	7.3640978	28.976755
496	50	4	0.040200026	9.8970854	9.8807192	30.436633
497	50	4	0.040200026	9.3468171	9.6874559	28.773963
498	50	4	0.040200026	7.4681705	9.6028537	30.49473
499	50	4	0.040200026	8.1818241	8.1470603	31.17105
500	50	3	0.40389854	7.9047012	7.1649283	28.965809
501	51	1	-0.5987395	11.733478	55.604954	56.874709
502	51	2	0.11444091	10.656964	54.688139	57.071714
503	51	2	0.11444091	9.3094748	55.388832	56.803622
504	51	1	-0.5987395	8.2477558	54.421592	56.733017
505	51	3	0.40389854	12.552438	55.161948	56.584659
506	51	4	0.040200026	10.773093	53.848085	56.380262
507	51	4	0.040200026	10.683292	54.287896	58.089752
508	51	4	0.040200026	9.3672389	55.927668	55.853038
509	51	4	0.040200026	9.1047001	56.122632	57.589045
510	51	3	0.40389854	8.0432469	54.022017	57.59881
511	52	1	-0.5987395	12.990149	9.7789478	50.986128
512	52	2	0.11444091	13.766941	8.9014703	50.163255
513	52	2	0.11444091	15.208185	8.783651	50.697989
514	52	1	-0.5987395	15.929874	7.7871048	49.964194
515	52	3	0.40389854	12.109815	9.95848	50.606823
516	52	4	0.040200026	13.297874	7.9131067	50.143209
517	52	4	0.040200026	13.788494	9.285357	49.138827
518	52	4	0.040200026	15.188488	8.5112834	51.757569
519	52	4	0.040200026	15.713115	9.7503519	50.609536
520	52	3	0.40389854	15.91997	7.9424751	49.001465
521	53	1	-0.5987395	32.254446	18.152696	52.004418
522	53	2	0.11444091	31.317592	18.530233	50.990534
523	53	2	0.11444091	30.549853	17.292898	50.497212
524	53	1	-0.5987395	29.424012	17.683972	49.705086
525	53	3	0.40389854	32.804277	17.390603	51.74367
526	53	4	0.040200026	30.617251	19.261312	51.405668
527	53	4	0.040200026	31.832805	18.999908	50.147181
528	53	4	0.040200026	30.199988	16.720064	51.361356
529	53	4	0.040200026	31.213503	16.647376	49.913979
530	53	3	0.40389854	29.6737	18.028021	48.827376
531	54	1	-0.5987395	25.602777	11.196253	44.000535
532	54	2	0.11444091	26.324382	10.047147	44.457722
533	54	2	0.11444091	27.559292	10.49316	45.269661
534	54	1	-0.5987395	28.204091	9.3709874	45.885367
535	54	3	0.40389854	24.777138	10.971582	43.532648
536	54	4	0.040200026	25.670364	9.4360167	45.087061
537	54	4	0.040200026	26.640043	9.4384348	43.605013
538	54	4	0.040200026	27.253535	11.204551	46.042786
539	54	4	0.040200026	28.265486	11.006223	44.609852
540	54	3	0.40389854	27.606676	8.8802171	46.479778
541	55	1	-0.5987395	21.280465	1.0474336	5.2105075
542	55	2	0.11444091	20.550268	1.8783778	4.3006572
543	55	2	0.11444091	20.87888	1.4761955	2.8496918
544	55	1	-0.5987395	22.240736	1.8012287	2.5486138
545	55	3	0.40389854	21.343033	1.4274114	6.1064935
546	55	4	0.040200026	19.476943	1.7697106	4.4835624
547	55	4	0.040200026	20.811696	2.9293638	4.4567728
548	55	4	0.040200026	20.21709	2.0082203	2.1595667
549	55	4	0.040200026	20.706732	0.40422067	2.71359
550	55	3	0.40389854	22.867358	1.4914207	3.2286513
551	56	1	-0.5987395	23.291039	32.345166	24.803534
552	56	2	0.11444091	22.80575	33.689792	24.901977
553	56	2	0.11444091	22.162852	33.921456	26.284914
554	56	1	-0.5987395	21.521249	35.203888	26.334367
555	56	3	0.40389854	23.75664	32.170172	23.964682
556	56	4	0.040200026	23.629012	34.395995	24.757731
557	56	4	0.040200026	22.067072	33.867879	24.114623
558	56	4	0.040200026	22.93314	33.858833	27.059526
559	56	4	0.040200026	21.425314	33.138714	26.486497
560	56	3	0.40389854	20.855877	35.31352	25.629849
561	57	1	-0.5987395	7.3458254	15.642229	3.4010285
562	57	2	0.11444091	6.616863	14.657878	2.6583102
563	57	2	0.11444091	6.1503249	13.520372	3.5920379
564	57	1	-0.5987395	5.5927384	12.442026	2.8308043
565	57	3	0.40389854	8.1265843	15.26466	3.8470668
566	57	4	0.040200026	5.7500798	15.119472	2.1757057
567	57	4	0.040200026	7.2605491	14.249064	1.8735632
568	57	4	0.040200026	5.4028755	13.90395	4.293091
569	57	4	0.040200026	6.9979781	13.149904	4.1764399
570	57	3	0.40389854	6.2277406	12.046627	2.2050989
571	58	1	-0.5987395	17.572359	49.036636	11.335336
572	58	2	0.11444091	17.136306	50.384321	11.134465
573	58	2	0.11444091	18.27206	51.222134	10.525521
574	58	1	-0.5987395	19.377078	51.321821	11.436737
575	58	3	0.40389854	16.974368	48.529882	11.915584
576	58	4	0.040200026	16.270069	50.394258	10.466015
577	58	4	0.040200026	16.82665	50.826392	12.086293
578	58	4	0.040200026	17.895374	52.224407	10.300022
579	58	4	0.040200026	18.599505	50.768309	9.5852512
580	58	3	0.40389854	19.712851	50.447664	11.709137
581	59	1	-0.5987395	33.533669	5.5409545	37.516909
582	59	2	0.11444091	34.342661	6.5079618	38.200748