Title

11100 atoms
10800 bonds
19200 angles
29100 dihedrals
4500 impropers

11 atom types
11 bond types
8 angle types
19 dihedral types
4 improper types
-9.569408298 70.4305917 xlo xhi
-8.221434355 71.77856565 ylo yhi
-10.56746721 69.43253279 zlo zhi
0.0 0.0 0.0 xy xz yz

Masses

1	12.01078
2	18.998403
3	32.0655
4	15.99943
5	14.00672
6	12.01078
7	1.007947
8	1.007947
9	1.007947
10	1.007947
11	1.007947


Pair Coeffs

1	0.10884061	3.3795318
2	0.061	3.1181455
3	0.25	3.5635949
4	0.2102061	3.0398122
5	0.16769152	3.206876
6	0.086879315	3.4806469
7	0.015779483	2.6445434
8	0.016409246	2.5832257
9	0.013106998	2.4536265
10	0.0157	1.9599772
11	0.014797445	2.4419228

Bond Coeffs

1 harmonic	287.91882093395	1.359315559786
2 harmonic	156.8711507117	1.812798632943
3 harmonic	608.035974961	1.469758533467
4 harmonic	239.8447873633	1.642019753341
5 harmonic	215.30139056395	1.533627603844
6 harmonic	357.8191474159	1.094206460752
7 harmonic	225.97114073395	1.477375101044
8 harmonic	329.26307138675	1.389502949007
9 harmonic	452.0241811971	1.373209032276
10 harmonic	386.4399368291	1.08603610657
11 harmonic	505.163639116	1.309372378949


Angle Coeffs

1 harmonic	119.7125597221	107.2128707706
2 harmonic	66.75631831595	109.9380527584
3 harmonic	124.0884341307	113.2116558678
4 harmonic	94.25109102650001	120.4494266916
5 harmonic	79.47831834420001	121.7705343867
6 harmonic	91.51855890415	108.1730591511
7 harmonic	50.901762366	124.801611398
8 harmonic	36.776637850755	108.3543135269


Dihedral Coeffs

1 fourier 1	-1.572239594429	1	180
2 fourier 1	0.316444679891	2	0
3 fourier 1	0.1426731536269	3	0
4 fourier 1	0.2057583936885	3	0
5 fourier 1	0.143904881748	3	0
6 fourier 1	0.0985377828486	3	0
7 fourier 1	0.3215160932459	2	0
8 fourier 1	0.2510071310501	3	0
9 fourier 1	-0.1108037280545	4	180
10 fourier 1	-0.2219080374426	3	180
11 fourier 1	0.8434650381516	2	0
12 fourier 1	-0.1523281600983	1	0
13 fourier 1	1.469128273675	2	180
14 fourier 1	4.626306460904	2	180
15 fourier 1	1.012490953194	2	180
16 fourier 1	1.409955177277	2	180
17 fourier 1	1.079567853188	2	180
18 fourier 1	1.601769915929	1	0
19 fourier 1	0.2279946533057	3	0


Improper Coeffs

1 5.335286357863333	-1	2
2 1.743596855104667	-1	2
3 3.374156584723333	-1	2
4 0.4187541668506667	-1	2


Atoms

1	1	1	0.53867169	13.196837	63.285089	16.487452
2	1	2	-0.26574303	13.899016	62.111473	16.604992
3	1	2	-0.26574303	13.640755	63.877916	15.337228
4	1	2	-0.26574303	13.589702	64.080229	17.529626
5	1	3	1.5785306	11.291475	62.949724	16.518296
6	1	4	-0.66341273	11.014053	62.179356	17.744045
7	1	4	-0.66341273	10.562869	64.212008	16.341926
8	1	5	-0.98629526	10.883535	61.872811	15.376616
9	1	3	1.5785306	10.33215	62.604194	14.067373
10	1	4	-0.66341273	8.9700752	63.058982	14.373559
11	1	4	-0.66341273	11.406145	63.516498	13.646775
12	1	1	0.53867169	10.177833	61.271768	12.69832
13	1	2	-0.26574309	11.396513	60.702434	12.443399
14	1	2	-0.26574309	9.3511462	60.243406	13.074281
15	1	2	-0.26574309	9.7144741	61.794524	11.519675
16	2	1	0.53867169	3.3124521	13.338276	64.158731
17	2	2	-0.26574303	2.9203761	13.825823	65.377769
18	2	2	-0.26574303	4.279401	14.180183	63.671536
19	2	2	-0.26574303	2.2438277	13.447	63.309145
20	2	3	1.5785306	3.9465657	11.530703	64.267497
21	2	4	-0.66341273	2.9134378	10.741644	64.952331
22	2	4	-0.66341273	4.3741307	11.156137	62.908697
23	2	5	-0.98629526	5.2170372	11.503137	65.251875
24	2	3	1.5785306	6.1577576	10.250676	64.91251
25	2	4	-0.66341273	5.2993226	9.0602231	64.798226
26	2	4	-0.66341273	6.9799572	10.675927	63.766122
27	2	1	0.53867169	7.3505658	9.9553406	66.390514
28	2	2	-0.26574309	8.1220448	11.057122	66.650147
29	2	2	-0.26574309	6.6669124	9.6631181	67.543626
30	2	2	-0.26574309	8.19718	8.9058113	66.145625
31	3	1	0.53867169	38.868387	16.481794	59.037628
32	3	2	-0.26574303	39.755425	15.527703	59.446278
33	3	2	-0.26574303	38.023176	15.907396	58.130093
34	3	2	-0.26574303	39.603164	17.399716	58.334627
35	3	3	1.5785306	37.94517	17.330369	60.510635
36	3	4	-0.66341273	38.960111	17.93757	61.386933
37	3	4	-0.66341273	36.947711	18.281194	59.981503
38	3	5	-0.98629526	37.24715	16.271687	61.498275
39	3	3	1.5785306	35.712578	16.046739	61.139965
40	3	4	-0.66341273	34.994066	17.225834	61.653433
41	3	4	-0.66341273	35.641348	15.759597	59.697456
42	3	1	0.53867169	35.033259	14.517305	62.098837
43	3	2	-0.26574309	35.633073	13.347857	61.73162
44	3	2	-0.26574309	35.193958	14.648885	63.449111
45	3	2	-0.26574309	33.692777	14.352831	61.873522
46	4	1	0.53867169	59.225397	4.3670931	9.531514
47	4	2	-0.26574303	59.163356	5.6965685	9.1979456
48	4	2	-0.26574303	60.067048	4.2497921	10.606869
49	4	2	-0.26574303	59.807906	3.7111837	8.4783506
50	4	3	1.5785306	57.482691	3.6582923	9.9140221
51	4	4	-0.66341273	56.623449	3.9544848	8.753956
52	4	4	-0.66341273	57.652931	2.2616898	10.345863
53	4	5	-0.98629526	56.83712	4.5000768	11.1168
54	4	3	1.5785306	55.673761	3.6653754	11.833137
55	4	4	-0.66341273	54.788756	3.1372797	10.777727
56	4	4	-0.66341273	56.346517	2.7451175	12.765687
57	4	1	0.53867169	54.620423	4.8980901	12.875963
58	4	2	-0.26574309	55.364332	5.5711585	13.813031
59	4	2	-0.26574309	54.035711	5.8532244	12.081279
60	4	2	-0.26574309	53.602576	4.2675963	13.541249
61	5	1	0.53867169	52.178693	45.355849	72.810459
62	5	2	-0.26574303	52.613072	44.089718	73.11451
63	5	2	-0.26574303	53.086166	46.233592	73.349557
64	5	2	-0.26574303	50.988903	45.548458	73.462029
65	5	3	1.5785306	52.000237	45.613604	70.915289
66	5	4	-0.66341273	51.102028	44.562082	70.410719
67	5	4	-0.66341273	51.669254	47.033749	70.703883
68	5	5	-0.98629526	53.427997	45.302906	70.239315
69	5	3	1.5785306	53.555393	46.057734	68.829288
70	5	4	-0.66341273	52.315669	45.815063	68.076468
71	5	4	-0.66341273	53.973656	47.429943	69.162521
72	5	1	0.53867169	54.991574	45.239172	67.851958
73	5	2	-0.26574309	56.157999	45.245347	68.573303
74	5	2	-0.26574309	54.714532	43.926225	67.564135
75	5	2	-0.26574309	55.232544	45.877538	66.664629
76	6	1	0.53867169	43.751602	20.370126	74.663739
77	6	2	-0.26574303	42.573571	19.688294	74.490709
78	6	2	-0.26574303	44.734488	19.428211	74.82944
79	6	2	-0.26574303	43.646922	21.065679	75.838919
80	6	3	1.5785306	44.111743	21.53749	73.180118
81	6	4	-0.66341273	42.893023	22.326481	72.935328
82	6	4	-0.66341273	45.367832	22.253277	73.463669
83	6	5	-0.98629526	44.2872	20.642173	71.857443
84	6	3	1.5785306	45.152497	21.426444	70.757489
85	6	4	-0.66341273	44.614339	22.795289	70.660019
86	6	4	-0.66341273	46.558566	21.228857	71.137729
87	6	1	0.53867169	44.885716	20.598071	69.047046
88	6	2	-0.26574309	45.178218	19.258019	69.070883
89	6	2	-0.26574309	43.583412	20.726399	68.639188
90	6	2	-0.26574309	45.667753	21.17872	68.083148
91	7	1	0.53867169	61.816926	61.819119	40.277729
92	7	2	-0.26574303	62.503295	60.658426	40.033941
93	7	2	-0.26574303	60.87173	61.556973	41.23826
94	7	2	-0.26574303	61.104555	62.10525	39.142962
95	7	3	1.5785306	63.009272	63.276377	40.747457
96	7	4	-0.66341273	63.506212	63.863983	39.492102
97	7	4	-0.66341273	62.34355	64.203672	41.676278
98	7	5	-0.98629526	64.38942	62.783699	41.417761
99	7	3	1.5785306	64.177742	62.383485	42.948103
100	7	4	-0.66341273	64.199381	63.637919	43.717098
101	7	4	-0.66341273	62.993951	61.512556	42.999396
102	7	1	0.53867169	65.689373	61.343365	43.513126
103	7	2	-0.26574309	65.799794	60.186915	42.787704
104	7	2	-0.26574309	66.867228	62.033949	43.366933
105	7	2	-0.26574309	65.586209	60.982947	44.830852
106	8	1	0.53867169	-8.3873093	76.65256	69.309287
107	8	2	-0.26574303	-8.243897	77.475204	70.400205
108	8	2	-0.26574303	-7.3722684	76.952114	68.440561
109	8	2	-0.26574303	-9.5694083	76.996965	68.708797
110	8	3	1.5785306	-8.3737212	74.803967	69.832649
111	8	4	-0.66341273	-9.4233853	74.639864	70.855565
112	8	4	-0.66341273	-8.4374815	73.985305	68.612738
113	8	5	-0.98629526	-6.9991446	74.509964	70.613818
114	8	3	1.5785306	-6.6410279	72.947917	70.556946
115	8	4	-0.66341273	-7.8463465	72.21839	70.984917
116	8	4	-0.66341273	-6.0636503	72.701349	69.225903
117	8	1	0.53867169	-5.2725315	72.591524	71.861067
118	8	2	-0.26574309	-4.1593081	73.366518	71.665559
119	8	2	-0.26574309	-5.7163692	72.847719	73.135619
120	8	2	-0.26574309	-4.8763487	71.280828	71.83332
121	9	1	0.53867169	30.560684	54.972901	21.835513
122	9	2	-0.26574303	29.552453	55.251174	22.719181
123	9	2	-0.26574303	30.304005	53.732219	21.305254
124	9	2	-0.26574303	31.714389	54.849091	22.561634
125	9	3	1.5785306	30.708673	56.317663	20.463195
126	9	4	-0.66341273	31.012239	57.599421	21.122167
127	9	4	-0.66341273	31.621311	55.780292	19.439989
128	9	5	-0.98629526	29.284761	56.452246	19.740937
129	9	3	1.5785306	29.196262	57.837782	18.935937
130	9	4	-0.66341273	28.798826	58.834648	19.944456
131	9	4	-0.66341273	30.447319	58.025174	18.182698
132	9	1	0.53867169	27.758923	57.716341	17.663207
133	9	2	-0.26574309	27.977083	56.732011	16.735291
134	9	2	-0.26574309	26.562581	57.437558	18.276011
135	9	2	-0.26574309	27.584486	58.891644	16.977956
136	10	1	0.53867169	35.002198	49.8665	16.737814
137	10	2	-0.26574303	35.895422	48.873644	16.4335
138	10	2	-0.26574303	34.702518	49.739318	18.073615
139	10	2	-0.26574303	33.840282	49.600978	16.060672
140	10	3	1.5785306	35.680392	51.624012	16.336657
141	10	4	-0.66341273	36.150365	51.632757	14.95057
142	10	4	-0.66341273	34.66018	52.582746	16.79409
143	10	5	-0.98629526	36.969893	51.8963	17.244581
144	10	3	1.5785306	37.810156	53.148088	16.671022
145	10	4	-0.66341273	36.891096	54.260564	16.383159
146	10	4	-0.66341273	38.720055	53.396258	17.804109
147	10	1	0.53867169	38.931024	52.742	15.136983
148	10	2	-0.26574309	39.443872	51.469851	15.194626
149	10	2	-0.26574309	38.330219	52.91585	13.922457
150	10	2	-0.26574309	40.014787	53.581572	15.115136
151	11	1	0.53867169	38.9255	55.426469	28.369925
152	11	2	-0.26574303	39.54071	54.260545	27.991276
153	11	2	-0.26574303	38.703516	55.331426	29.720271
154	11	2	-0.26574303	37.7001	55.464191	27.758462
155	11	3	1.5785306	39.985955	56.967072	27.928596
156	11	4	-0.66341273	40.198069	56.964641	26.476181
157	11	4	-0.66341273	39.367619	58.13118	28.579669
158	11	5	-0.98629526	41.428108	56.794457	28.590996
159	11	3	1.5785306	42.485785	57.809548	27.925394
160	11	4	-0.66341273	41.877828	59.144444	27.811387
161	11	4	-0.66341273	43.618422	57.697473	28.859968
162	11	1	0.53867169	43.124542	57.222462	26.189277
163	11	2	-0.26574309	43.044467	55.860853	26.04403
164	11	2	-0.26574309	42.464809	57.812195	25.141368
165	11	2	-0.26574309	44.445729	57.551479	26.024427
166	12	1	0.53867169	56.501088	54.161863	45.149627
167	12	2	-0.26574303	56.93819	52.904119	44.818559
168	12	2	-0.26574303	55.195327	54.026313	45.54471
169	12	2	-0.26574303	56.519928	54.936604	44.021244
170	12	3	1.5785306	57.575884	54.917951	46.545
171	12	4	-0.66341273	58.975205	54.911227	46.088548
172	12	4	-0.66341273	56.968203	56.199069	46.946163
173	12	5	-0.98629526	57.531338	53.90626	47.792382
174	12	3	1.5785306	57.982359	54.654994	49.138737
175	12	4	-0.66341273	59.214134	55.402088	48.837671
176	12	4	-0.66341273	56.778693	55.359983	49.607387
177	12	1	0.53867169	58.424478	53.310995	50.438466
178	12	2	-0.26574309	57.379422	52.443891	50.64167
179	12	2	-0.26574309	59.490094	52.552466	50.024328
180	12	2	-0.26574309	58.7569	53.86044	51.64753
181	13	1	0.53867169	64.94348	23.375757	41.275578
182	13	2	-0.26574303	65.92144	22.424974	41.448321
183	13	2	-0.26574303	64.058309	22.898421	40.345607
184	13	2	-0.26574303	65.549936	24.487953	40.75469
185	13	3	1.5785306	64.082184	23.765509	42.942524
186	13	4	-0.66341273	65.15789	24.083664	43.902526
187	13	4	-0.66341273	63.023558	24.754052	42.686615
188	13	5	-0.98629526	63.415976	22.401314	43.480167
189	13	3	1.5785306	62.301607	22.715435	44.594908
190	13	4	-0.66341273	62.948732	23.58463	45.585337
191	13	4	-0.66341273	61.098437	23.151293	43.862782
192	13	1	0.53867169	61.86852	21.042817	45.447731
193	13	2	-0.26574309	61.307926	20.165071	44.554586
194	13	2	-0.26574309	62.993512	20.433023	45.938039
195	13	2	-0.26574309	60.978599	21.162312	46.480665
196	14	1	0.53867169	67.93263	34.852035	68.588977
197	14	2	-0.26574303	67.007332	33.882673	68.294063
198	14	2	-0.26574303	68.821259	34.90376	67.544317
199	14	2	-0.26574303	68.626866	34.423125	69.691248
200	14	3	1.5785306	67.102981	36.557624	68.90131
201	14	4	-0.66341273	66.069961	36.360459	69.935999
202	14	4	-0.66341273	68.185377	37.531188	69.120874
203	14	5	-0.98629526	66.289067	36.974008	67.585325
204	14	3	1.5785306	66.040354	38.558073	67.551618
205	14	4	-0.66341273	65.58145	38.971417	68.890357
206	14	4	-0.66341273	67.269711	39.128916	66.98235
207	14	1	0.53867169	64.60144	38.913903	66.323051
208	14	2	-0.26574309	64.943085	38.618026	65.028911
209	14	2	-0.26574309	63.490772	38.168099	66.62478
210	14	2	-0.26574309	64.208503	40.226817	66.36158
211	15	1	0.53867169	61.234174	56.855903	69.186296
212	15	2	-0.26574303	60.563941	55.667429	69.323792
213	15	2	-0.26574303	60.324712	57.765813	68.707376
214	15	2	-0.26574303	62.189331	56.677556	68.221183
215	15	3	1.5785306	61.993847	57.43557	70.852785
216	15	4	-0.66341273	62.852812	56.347876	71.356397
217	15	4	-0.66341273	62.566118	58.773012	70.636454
218	15	5	-0.98629526	60.800433	57.556033	71.923151
219	15	3	1.5785306	61.21047	58.549953	73.115325
220	15	4	-0.66341273	62.594414	58.236833	73.510494
221	15	4	-0.66341273	60.864215	59.888883	72.609406
222	15	1	0.53867169	60.094066	58.205218	74.642906
223	15	2	-0.26574309	58.770041	58.442192	74.375353
224	15	2	-0.26574309	60.214539	56.907663	75.072823
225	15	2	-0.26574309	60.434742	59.008188	75.699496
226	16	1	0.53867169	28.870628	52.726855	60.557408
227	16	2	-0.26574303	28.902636	54.004717	61.054845
228	16	2	-0.26574303	27.556915	52.358532	60.439434
229	16	2	-0.26574303	29.446633	51.923866	61.506371
230	16	3	1.5785306	29.811285	52.60046	58.89564
231	16	4	-0.66341273	31.156156	53.156505	59.130759
232	16	4	-0.66341273	29.663303	51.220007	58.414626
233	16	5	-0.98629526	29.147766	53.615375	57.847648
234	16	3	1.5785306	29.49347	53.167434	56.346302
235	16	4	-0.66341273	30.949275	52.929907	56.281538
236	16	4	-0.66341273	28.55592	52.083769	56.016121
237	16	1	0.53867169	29.104176	54.629574	55.157342
238	16	2	-0.26574309	27.776852	54.967074	55.171046
239	16	2	-0.26574309	29.806852	55.759387	55.487046
240	16	2	-0.26574309	29.436927	54.319534	53.863187
241	17	1	0.53867169	28.017631	58.731146	60.045147
242	17	2	-0.26574303	29.231191	59.350901	59.860744
243	17	2	-0.26574303	28.269148	57.514496	60.619707
244	17	2	-0.26574303	27.518108	58.485231	58.794432
245	17	3	1.5785306	26.812401	59.796162	61.108098
246	17	4	-0.66341273	26.656432	61.080971	60.40998
247	17	4	-0.66341273	25.646348	58.955383	61.437483
248	17	5	-0.98629526	27.538664	60.184813	62.487855
249	17	3	1.5785306	26.442447	60.659404	63.571877
250	17	4	-0.66341273	25.38327	61.430216	62.902536
251	17	4	-0.66341273	26.07511	59.427128	64.289269
252	17	1	0.53867169	27.281709	61.852365	64.826899
253	17	2	-0.26574309	28.350303	61.279011	65.459437
254	17	2	-0.26574309	27.753098	62.982221	64.206395
255	17	2	-0.26574309	26.405883	62.251425	65.802131
256	18	1	0.53867169	39.119432	59.321237	73.01497
257	18	2	-0.26574303	40.242977	59.839935	73.605309
258	18	2	-0.26574303	38.041749	60.038247	73.463292
259	18	2	-0.26574303	38.989589	58.042092	73.498425
260	18	3	1.5785306	39.250593	59.333758	71.095695
261	18	4	-0.66341273	40.516901	58.676701	70.754933
262	18	4	-0.66341273	37.981007	58.805237	70.572352
263	18	5	-0.98629526	39.350281	60.846467	70.592103
264	18	3	1.5785306	39.841518	60.926423	69.053979
265	18	4	-0.66341273	39.070082	59.948921	68.268399
266	18	4	-0.66341273	39.590931	62.345691	68.744826
267	18	1	0.53867169	41.74727	60.637217	68.824377
268	18	2	-0.26574309	42.462692	61.132779	69.885588
269	18	2	-0.26574309	42.097058	59.326563	68.638153
270	18	2	-0.26574309	42.19831	61.291499	67.706833
271	19	1	0.53867169	54.5784	74.718509	11.540997
272	19	2	-0.26574303	54.178443	74.313436	10.294877
273	19	2	-0.26574303	54.047475	73.835926	12.449114
274	19	2	-0.26574303	54.004593	75.941052	11.77861
275	19	3	1.5785306	56.490703	74.804754	11.691365
276	19	4	-0.66341273	56.988449	75.674891	10.611918
277	19	4	-0.66341273	56.798115	75.147457	13.091416
278	19	5	-0.98629526	57.097807	73.351355	11.383575
279	19	3	1.5785306	58.564091	73.210816	12.015022
280	19	4	-0.66341273	59.29884	74.46836	11.789389
281	19	4	-0.66341273	58.303819	72.732649	13.382102
282	19	1	0.53867169	59.514012	71.813698	11.099323
283	19	2	-0.26574309	58.86209	70.612183	11.190426
284	19	2	-0.26574309	59.683938	72.091784	9.768005
285	19	2	-0.26574309	60.76551	71.624351	11.626314
286	20	1	0.53867169	51.658039	27.085347	46.276503
287	20	2	-0.26574303	50.538898	27.226522	47.049232
288	20	2	-0.26574303	52.30494	25.974603	46.733561
289	20	2	-0.26574303	52.482481	28.141723	46.559949
290	20	3	1.5785306	51.219554	27.042077	44.387736
291	20	4	-0.66341273	50.599318	28.330803	44.042253
292	20	4	-0.66341273	52.397499	26.6943	43.575277
293	20	5	-0.98629526	50.007181	26.02999	44.060168
294	20	3	1.5785306	50.569177	24.577718	43.680782
295	20	4	-0.66341273	50.887618	24.664323	42.243605
296	20	4	-0.66341273	51.612568	24.246693	44.660382
297	20	1	0.53867169	49.150543	23.296409	43.882818
298	20	2	-0.26574309	48.688445	23.232651	45.172858
299	20	2	-0.26574309	48.076282	23.603578	43.088651
300	20	2	-0.26574309	49.559808	22.037723	43.532271
301	21	1	0.53867169	26.387603	21.412103	57.178278
302	21	2	-0.26574303	25.404267	21.726348	58.077431
303	21	2	-0.26574303	25.880609	20.453656	56.33647
304	21	2	-0.26574303	27.412887	20.835083	57.881513
305	21	3	1.5785306	26.99918	22.931342	56.195235
306	21	4	-0.66341273	27.493436	23.919759	57.167449
307	21	4	-0.66341273	27.926824	22.414095	55.175161
308	21	5	-0.98629526	25.738437	23.615	55.49078
309	21	3	1.5785306	26.195638	24.43331	54.197273
310	21	4	-0.66341273	27.400141	25.211928	54.545751
311	21	4	-0.66341273	26.248107	23.429077	53.126111
312	21	1	0.53867169	24.800746	25.683804	53.748121
313	21	2	-0.26574309	23.593545	25.059974	53.53745
314	21	2	-0.26574309	24.599137	26.600354	54.748054
315	21	2	-0.26574309	25.100963	26.388671	52.609649
316	22	1	0.53867169	60.408006	57.919583	52.720962
317	22	2	-0.26574303	61.194072	56.903453	52.239614
318	22	2	-0.26574303	61.140037	58.583441	53.668976
319	22	2	-0.26574303	59.337096	57.34796	53.353677
320	22	3	1.5785306	59.843755	59.102631	51.317277
321	22	4	-0.66341273	59.207578	58.289251	50.268607
322	22	4	-0.66341273	59.081135	60.203085	51.928644
323	22	5	-0.98629526	61.146402	59.712768	50.601091
324	22	3	1.5785306	60.780745	61.069918	49.834356
325	22	4	-0.66341273	59.552035	60.838566	49.052629
326	22	4	-0.66341273	60.839643	62.120085	50.864654
327	22	1	0.53867169	62.186942	61.438098	48.587265
328	22	2	-0.26574309	63.38553	61.620188	49.230738
329	22	2	-0.26574309	62.337899	60.407472	47.698998
330	22	2	-0.26574309	61.925311	62.567167	47.859221
331	23	1	0.53867169	6.6083217	17.655015	22.783244
332	23	2	-0.26574303	5.8393687	17.200927	23.823113
333	23	2	-0.26574303	5.7495946	18.003622	21.77155
334	23	2	-0.26574303	7.3636311	16.600236	22.339766
335	23	3	1.5785306	7.7066773	19.142163	23.302159
336	23	4	-0.66341273	8.4860557	18.729836	24.482689
337	23	4	-0.66341273	8.4102958	19.606612	22.095032
338	23	5	-0.98629526	6.7454666	20.325422	23.803926
339	23	3	1.5785306	7.5211656	21.734629	23.768075
340	23	4	-0.66341273	8.8959575	21.535726	24.258707
341	23	4	-0.66341273	7.3099035	22.235296	22.400169
342	23	1	0.53867169	6.6429591	22.948947	24.973223
343	23	2	-0.26574309	5.3191924	23.117216	24.65049
344	23	2	-0.26574309	6.6872609	22.498417	26.266863
345	23	2	-0.26574309	7.2275019	24.18853	24.952042
346	24	1	0.53867169	52.317095	34.899657	52.939668
347	24	2	-0.26574303	52.972555	35.744452	52.085319
348	24	2	-0.26574303	51.034207	35.36032	53.076615
349	24	2	-0.26574303	52.920098	35.011351	54.165416
350	24	3	1.5785306	52.35281	33.086004	52.313261
351	24	4	-0.66341273	53.765197	32.698777	52.167287
352	24	4	-0.66341273	51.469693	32.308204	53.201909
353	24	5	-0.98629526	51.760287	33.017132	50.818195
354	24	3	1.5785306	51.26616	31.521039	50.499024
355	24	4	-0.66341273	52.252817	30.565107	51.022673
356	24	4	-0.66341273	49.870701	31.467724	50.971899
357	24	1	0.53867169	51.223545	31.292622	48.599534
358	24	2	-0.26574309	50.413647	32.216668	47.999048
359	24	2	-0.26574309	52.462263	31.432405	48.041716
360	24	2	-0.26574309	50.753484	30.055673	48.25839
361	25	1	0.53867169	23.650079	63.246102	72.43547
362	25	2	-0.26574303	24.852171	63.141189	71.78802
363	25	2	-0.26574303	22.953715	64.295297	71.894588
364	25	2	-0.26574303	23.912206	63.644538	73.721581
365	25	3	1.5785306	22.672279	61.570063	72.43856
366	25	4	-0.66341273	23.277459	60.702295	73.463249
367	25	4	-0.66341273	21.234741	61.817389	72.636766
368	25	5	-0.98629526	22.882679	60.673585	71.117311
369	25	3	1.5785306	21.979177	61.206117	69.91056
370	25	4	-0.66341273	20.637681	60.644116	70.129614
371	25	4	-0.66341273	22.158029	62.661061	69.865808
372	25	1	0.53867169	22.651734	60.463448	68.264198
373	25	2	-0.26574309	23.953981	60.822945	68.034849
374	25	2	-0.26574309	22.615938	59.091167	68.275084
375	25	2	-0.26574309	21.912293	60.875797	67.184286
376	26	1	0.53867169	57.630219	15.324903	16.008716
377	26	2	-0.26574303	57.648745	16.661068	15.696293
378	26	2	-0.26574303	58.770761	15.054257	16.717983
379	26	2	-0.26574303	57.780485	14.651535	14.823745
380	26	3	1.5785306	55.982223	14.800178	16.899953
381	26	4	-0.66341273	54.955273	14.615031	15.860277
382	26	4	-0.66341273	56.197796	13.617511	17.745228
383	26	5	-0.98629526	55.32516	15.981883	17.781168
384	26	3	1.5785306	56.038432	16.0814	19.214839
385	26	4	-0.66341273	55.316591	15.107117	20.04842
386	26	4	-0.66341273	57.480836	15.957059	18.974371
387	26	1	0.53867169	55.714965	17.842427	19.938902
388	26	2	-0.26574309	56.301093	18.815212	19.172229
389	26	2	-0.26574309	54.376817	18.143979	19.984072
390	26	2	-0.26574309	56.209493	17.978023	21.2097
391	27	1	0.53867169	32.61127	49.648657	62.671461
392	27	2	-0.26574303	33.05572	48.694305	63.547487
393	27	2	-0.26574303	33.490973	50.7023	62.741904
394	27	2	-0.26574303	31.403694	50.107188	63.123093
395	27	3	1.5785306	32.502835	48.979406	60.875072
396	27	4	-0.66341273	31.687243	47.754436	60.878968
397	27	4	-0.66341273	32.13774	50.115561	60.013218
398	27	5	-0.98629526	33.972051	48.496156	60.441723
399	27	3	1.5785306	34.096642	48.438845	58.848348
400	27	4	-0.66341273	32.861171	47.867751	58.28835
401	27	4	-0.66341273	34.509144	49.801564	58.464336
402	27	1	0.53867169	35.541732	47.249875	58.400402
403	27	2	-0.26574309	36.717041	47.634263	58.994904
404	27	2	-0.26574309	35.286529	45.964293	58.804693
405	27	2	-0.26574309	35.771804	47.221045	57.050471
406	28	1	0.53867169	31.83495	9.7115719	40.04539
407	28	2	-0.26574303	30.480096	9.7972298	39.855816
408	28	2	-0.26574303	32.138116	10.477304	41.140571
409	28	2	-0.26574303	32.446034	10.303091	38.967988
410	28	3	1.5785306	32.406018	7.8889918	40.2669
411	28	4	-0.66341273	31.91684	7.1230608	39.113767
412	28	4	-0.66341273	33.849764	7.9120809	40.55305
413	28	5	-0.98629526	31.69647	7.2831756	41.566248
414	28	3	1.5785306	31.747282	5.6675559	41.550941
415	28	4	-0.66341273	33.041432	5.2232242	41.006703
416	28	4	-0.66341273	31.492634	5.3617811	42.96834
417	28	1	0.53867169	30.286283	4.9080896	40.529733
418	28	2	-0.26574309	29.169965	5.70503	40.594687
419	28	2	-0.26574309	30.586667	4.7042015	39.208605
420	28	2	-0.26574309	29.926834	3.6828285	41.026649
421	29	1	0.53867169	58.224125	43.094902	27.405479
422	29	2	-0.26574303	57.713323	42.0755	28.16582
423	29	2	-0.26574303	57.350092	43.291664	26.36451
424	29	2	-0.26574303	59.40773	42.65204	26.881316
425	29	3	1.5785306	58.443842	44.699173	28.440111
426	29	4	-0.66341273	59.314108	44.391279	29.588153
427	29	4	-0.66341273	58.811135	45.789552	27.52249
428	29	5	-0.98629526	57.025146	45.064387	29.08648
429	29	3	1.5785306	56.993651	46.595287	29.545903
430	29	4	-0.66341273	58.294334	46.975293	30.1296
431	29	4	-0.66341273	56.492729	47.324409	28.373985
432	29	1	0.53867169	55.683684	46.760273	30.940425
433	29	2	-0.26574309	54.446826	46.324801	30.53874
434	29	2	-0.26574309	56.028357	46.022882	32.044473
435	29	2	-0.26574309	55.558648	48.057485	31.36436
436	30	1	0.53867169	17.548637	54.584498	63.759112
437	30	2	-0.26574303	16.606206	54.343648	62.794223
438	30	2	-0.26574303	18.701136	53.950286	63.375974
439	30	2	-0.26574303	17.104073	53.990045	64.910254
440	30	3	1.5785306	17.820998	56.467738	64.013119
441	30	4	-0.66341273	16.531628	57.045021	64.427571
442	30	4	-0.66341273	18.982676	56.658692	64.899931
443	30	5	-0.98629526	18.275446	57.118516	62.618008
444	30	3	1.5785306	17.897147	58.669453	62.558637
445	30	4	-0.66341273	16.477473	58.726492	62.17474
446	30	4	-0.66341273	18.341662	59.287295	63.825312
447	30	1	0.53867169	18.905319	59.500375	61.147971
448	30	2	-0.26574309	20.251539	59.295235	61.300349
449	30	2	-0.26574309	18.556944	59.027686	59.910469
450	30	2	-0.26574309	18.714941	60.859013	61.142216
451	31	1	0.53867169	52.056351	36.991184	73.271379
452	31	2	-0.26574303	53.028278	36.144733	72.814016
453	31	2	-0.26574303	52.567768	38.261154	73.229575
454	31	2	-0.26574303	51.838593	36.681828	74.587817
455	31	3	1.5785306	50.437293	36.842399	72.248206
456	31	4	-0.66341273	50.044971	35.421391	72.230215
457	31	4	-0.66341273	49.497981	37.849069	72.769237
458	31	5	-0.98629526	50.748754	37.1703	70.709267
459	31	3	1.5785306	49.427662	37.692747	69.966326
460	31	4	-0.66341273	48.306937	36.811194	70.344677
461	31	4	-0.66341273	49.35463	39.135787	70.256619
462	31	1	0.53867169	49.683056	37.484174	68.077021
463	31	2	-0.26574309	50.78896	38.156154	67.63185
464	31	2	-0.26574309	49.858861	36.163528	67.747545
465	31	2	-0.26574309	48.604603	37.945664	67.369781
466	32	1	0.53867169	-5.4580641	24.174695	13.264986
467	32	2	-0.26574303	-4.3119749	23.696277	12.687757
468	32	2	-0.26574303	-6.0039127	23.151042	13.993982
469	32	2	-0.26574303	-6.3275439	24.462059	12.247646
470	32	3	1.5785306	-5.1090896	25.717986	14.350116
471	32	4	-0.66341273	-4.5026982	26.738625	13.477154
472	32	4	-0.66341273	-6.351403	26.034551	15.074178
473	32	5	-0.98629526	-3.9831495	25.346556	15.422268
474	32	3	1.5785306	-3.982369	26.405323	16.632555
475	32	4	-0.66341273	-4.2289954	27.753267	16.085997
476	32	4	-0.66341273	-4.9263823	25.834956	17.608675
477	32	1	0.53867169	-2.2448473	26.42853	17.448319
478	32	2	-0.26574309	-1.9284493	25.212142	17.987832
479	32	2	-0.26574309	-1.268612	26.75638	16.544269
480	32	2	-0.26574309	-2.1859294	27.344344	18.466036
481	33	1	0.53867169	67.033472	12.305806	4.8279336
482	33	2	-0.26574303	65.74811	11.901765	4.5683184
483	33	2	-0.26574303	67.760134	12.1048	3.6818737
484	33	2	-0.26574303	67.537904	11.454833	5.7787752
485	33	3	1.5785306	67.108598	14.138236	5.4140252
486	33	4	-0.66341273	66.202626	14.275433	6.5679419
487	33	4	-0.66341273	68.527799	14.48705	5.596531
488	33	5	-0.98629526	66.48694	15.072877	4.2695796
489	33	3	1.5785306	66.98585	16.586326	4.440102
490	33	4	-0.66341273	66.915154	16.947979	5.8669859
491	33	4	-0.66341273	68.28835	16.656826	3.7582511
492	33	1	0.53867169	65.772657	17.745657	3.4941143
493	33	2	-0.26574309	65.697837	17.438253	2.1589214
494	33	2	-0.26574309	64.497914	17.671165	3.9966398
495	33	2	-0.26574309	66.159968	19.059364	3.5816491
496	34	1	0.53867169	10.817246	19.181967	35.237551
497	34	2	-0.26574303	10.533311	17.856727	35.39381
498	34	2	-0.26574303	11.109999	19.700186	36.466906
499	34	2	-0.26574303	9.6475148	19.79391	34.866958
500	34	3	1.5785306	12.185372	19.489423	33.88622
501	34	4	-0.66341273	11.783108	18.764844	32.671132
502	34	4	-0.66341273	12.402561	20.934868	33.709352
503	34	5	-0.98629526	13.640163	18.861052	34.146843
504	34	3	1.5785306	14.033353	18.97692	35.679739
505	34	4	-0.66341273	13.814088	20.377901	36.076102
506	34	4	-0.66341273	13.266588	17.898866	36.312027
507	34	1	0.53867169	15.898249	18.565575	35.864899
508	34	2	-0.26574309	16.178039	17.306434	35.396826
509	34	2	-0.26574309	16.662282	19.442772	35.152318
510	34	2	-0.26574309	16.31562	18.621775	37.168775
511	35	1	0.53867169	18.021207	28.908408	48.20538
512	35	2	-0.26574303	16.856822	28.621762	48.874006
513	35	2	-0.26574303	17.941463	28.341353	46.959314
514	35	2	-0.26574303	19.019222	28.232656	48.856502
515	35	3	1.5785306	18.373547	30.817182	48.173304
516	35	4	-0.66341273	19.01355	31.159196	49.45272
517	35	4	-0.66341273	19.106644	31.181495	46.949587
518	35	5	-0.98629526	17.022697	31.698036	48.256788
519	35	3	1.5785306	16.303501	31.788504	46.835575
520	35	4	-0.66341273	17.006922	32.836051	46.075788
521	35	4	-0.66341273	16.253842	30.42058	46.303606
522	35	1	0.53867169	14.496552	32.367413	47.100539
523	35	2	-0.26574309	13.82422	31.490078	47.907548
524	35	2	-0.26574309	14.441966	33.601649	47.691803
525	35	2	-0.26574309	13.820812	32.437015	45.91002
526	36	1	0.53867169	48.999143	16.003824	37.827697
527	36	2	-0.26574303	48.695545	14.738492	38.256011
528	36	2	-0.26574303	48.170795	16.865845	38.504388
529	36	2	-0.26574303	48.669357	16.091968	36.501229
530	36	3	1.5785306	50.846372	16.445216	38.12752
531	36	4	-0.66341273	51.682377	15.418236	37.488291
532	36	4	-0.66341273	51.031175	17.859256	37.74509
533	36	5	-0.98629526	51.160355	16.322149	39.695752
534	36	3	1.5785306	52.497358	17.120349	40.064559
535	36	4	-0.66341273	53.506718	16.883917	39.013522
536	36	4	-0.66341273	52.034168	18.488592	40.337176
537	36	1	0.53867169	53.189354	16.429101	41.726446
538	36	2	-0.26574309	52.28096	16.546282	42.748947
539	36	2	-0.26574309	53.52982	15.106176	41.63815
540	36	2	-0.26574309	54.3118	17.099643	42.141604
541	37	1	0.53867169	59.012675	26.064744	46.348724
542	37	2	-0.26574303	57.826686	25.398045	46.508303
543	37	2	-0.26574303	58.765621	27.400973	46.530581
544	37	2	-0.26574303	59.382076	25.913076	45.037322
545	37	3	1.5785306	60.358653	25.401082	47.550817
546	37	4	-0.66341273	60.429502	23.946619	47.369428
547	37	4	-0.66341273	61.546612	26.247005	47.390723
548	37	5	-0.98629526	59.865832	25.569687	49.052572
549	37	3	1.5785306	61.097026	25.377746	50.081158
550	37	4	-0.66341273	61.81262	26.666098	50.114231
551	37	4	-0.66341273	60.405545	25.011256	51.32576
552	37	1	0.53867169	62.335987	23.926501	49.684577
553	37	2	-0.26574309	61.711555	22.713103	49.581108
554	37	2	-0.26574309	63.079391	24.105852	48.554907
555	37	2	-0.26574309	63.242869	23.79863	50.701466
556	38	1	0.53867169	7.0554394	56.65812	3.5055915