Title

12000 atoms
11700 bonds
21000 angles
32400 dihedrals
4500 impropers

11 atom types
11 bond types
8 angle types
22 dihedral types
4 improper types
-11.63013577 68.36986423 xlo xhi
-7.302100658 72.69789934 ylo yhi
-10.54601192 69.45398808 zlo zhi
0.0 0.0 0.0 xy xz yz

Masses

1	12.01078
2	18.998403
3	32.0655
4	15.99943
5	14.00672
6	12.01078
7	1.007947
8	1.007947
9	1.007947
10	1.007947
11	1.007947


Pair Coeffs

1	0.10884061	3.3795318
2	0.061	3.1181455
3	0.25	3.5635949
4	0.2102061	3.0398122
5	0.16769152	3.206876
6	0.086879315	3.4806469
7	0.015779483	2.6445434
8	0.016409246	2.5832257
9	0.013106998	2.4536265
10	0.0157	1.9599772
11	0.014797445	2.4419228

Bond Coeffs

1 harmonic	287.91882093395	1.359315559786
2 harmonic	156.8711507117	1.812798632943
3 harmonic	608.035974961	1.469758533467
4 harmonic	239.8447873633	1.642019753341
5 harmonic	215.30139056395	1.533627603844
6 harmonic	357.8191474159	1.094206460752
7 harmonic	225.97114073395	1.477375101044
8 harmonic	329.26307138675	1.389502949007
9 harmonic	452.0241811971	1.373209032276
10 harmonic	386.4399368291	1.08603610657
11 harmonic	505.163639116	1.309372378949


Angle Coeffs

1 harmonic	119.7125597221	107.2128707706
2 harmonic	66.75631831595	109.9380527584
3 harmonic	124.0884341307	113.2116558678
4 harmonic	94.25109102650001	120.4494266916
5 harmonic	79.47831834420001	121.7705343867
6 harmonic	91.51855890415	108.1730591511
7 harmonic	50.901762366	124.801611398
8 harmonic	36.776637850755	108.3543135269


Dihedral Coeffs

1 fourier 1	-1.572239594429	1	180
2 fourier 1	0.316444679891	2	0
3 fourier 1	0.1426731536269	3	0
4 fourier 1	0.2057583936885	3	0
5 fourier 1	0.3549667638131	3	0
6 fourier 1	0.2399307824079	2	180
7 fourier 1	0.9156101580834	1	180
8 fourier 1	0.0985377828486	3	0
9 fourier 1	0.143904881748	3	0
10 fourier 1	0.3215160932459	2	0
11 fourier 1	0.2510071310501	3	0
12 fourier 1	-0.1108037280545	4	180
13 fourier 1	-0.2219080374426	3	180
14 fourier 1	0.8434650381516	2	0
15 fourier 1	-0.1523281600983	1	0
16 fourier 1	1.469128273675	2	180
17 fourier 1	4.626306460904	2	180
18 fourier 1	1.012490953194	2	180
19 fourier 1	1.409955177277	2	180
20 fourier 1	1.079567853188	2	180
21 fourier 1	1.601769915929	1	0
22 fourier 1	0.2279946533057	3	0


Improper Coeffs

1 5.335286357863333	-1	2
2 1.743596855104667	-1	2
3 3.374156584723333	-1	2
4 0.4187541668506667	-1	2


Atoms

1	1	1	0.53867169	6.5810412	64.079485	12.843606
2	1	2	-0.26574303	6.7863446	64.210577	11.495543
3	1	2	-0.26574303	5.383994	64.681745	13.129402
4	1	2	-0.26574303	7.5651556	64.795933	13.472501
5	1	3	1.5785306	6.5966749	62.237868	13.39415
6	1	4	-0.66341273	7.851463	61.637368	12.91205
7	1	4	-0.66341273	6.2821704	62.206497	14.834415
8	1	5	-0.98629526	5.4588866	61.441298	12.58536
9	1	3	1.5785306	5.0039935	60.135665	13.40412
10	1	4	-0.66341273	6.2114149	59.472322	13.924963
11	1	4	-0.66341273	3.9738998	60.609145	14.344097
12	1	1	0.53867169	4.1670397	58.920608	12.177241
13	1	2	-0.26574309	3.0984318	59.499168	11.542988
14	1	2	-0.26574309	5.0418782	58.528042	11.195775
15	1	2	-0.26574309	3.7161136	57.791605	12.809434
16	2	1	0.53867169	8.012439	10.84276	66.263967
17	2	2	-0.26574303	8.4344971	11.682429	67.260962
18	2	2	-0.26574303	8.7248409	11.142164	65.134983
19	2	2	-0.26574303	6.6972643	11.127431	66.003022
20	2	3	1.5785306	8.2425708	9.0076476	66.76137
21	2	4	-0.66341273	7.5847328	8.8166046	68.064575
22	2	4	-0.66341273	7.8384566	8.1820065	65.610218
23	2	5	-0.98629526	9.7964001	8.7444562	67.068887
24	2	3	1.5785306	10.131874	7.1799219	66.945934
25	2	4	-0.66341273	9.0458429	6.4168191	67.582459
26	2	4	-0.66341273	10.427604	6.9701308	65.518003
27	2	1	0.53867169	11.742913	6.8301511	67.932706
28	2	2	-0.26574309	12.788348	7.588793	67.470803
29	2	2	-0.26574309	11.589146	7.1221781	69.262938
30	2	2	-0.26574309	12.115411	5.5165797	67.834649
31	3	1	0.53867169	34.382267	11.883683	56.791887
32	3	2	-0.26574303	33.986025	12.763541	55.820079
33	3	2	-0.26574303	34.955866	10.813115	56.158671
34	3	2	-0.26574303	33.226817	11.447058	57.390151
35	3	3	1.5785306	35.614636	12.716272	58.033795
36	3	4	-0.66341273	36.490619	13.618102	57.273021
37	3	4	-0.66341273	34.88236	13.328038	59.156542
38	3	5	-0.98629526	36.696262	11.677953	58.625813
39	3	3	1.5785306	36.093569	10.85175	59.845066
40	3	4	-0.66341273	36.275797	11.708561	61.025877
41	3	4	-0.66341273	34.746826	10.405447	59.458022
42	3	1	0.53867169	37.152538	9.2778563	60.133967
43	3	2	-0.26574309	37.157655	8.453896	59.041696
44	3	2	-0.26574309	38.451357	9.5853752	60.443106
45	3	2	-0.26574309	36.662741	8.5485429	61.187835
46	4	1	0.53867169	57.167382	6.4823776	13.080993
47	4	2	-0.26574303	56.570482	5.3556639	12.576671
48	4	2	-0.26574303	58.501382	6.4030075	12.795043
49	4	2	-0.26574303	57.068248	6.4072543	14.448241
50	4	3	1.5785306	56.30651	8.0906397	12.430338
51	4	4	-0.66341273	54.8985	8.0451024	12.860535
52	4	4	-0.66341273	57.049842	9.2867267	12.861335
53	4	5	-0.98629526	56.107464	8.0973089	10.829628
54	4	3	1.5785306	57.347631	8.7921405	10.097705
55	4	4	-0.66341273	57.091217	10.239363	10.203731
56	4	4	-0.66341273	58.56225	8.199392	10.669254
57	4	1	0.53867169	57.279596	8.3314741	8.2305282
58	4	2	-0.26574309	57.35642	6.9763911	8.0402935
59	4	2	-0.26574309	56.104989	8.7474883	7.6519459
60	4	2	-0.26574309	58.302655	8.9085519	7.5258654
61	5	1	0.53867169	50.531635	41.64844	63.532596
62	5	2	-0.26574303	51.126275	42.411718	62.562633
63	5	2	-0.26574303	50.792356	40.336528	63.230114
64	5	2	-0.26574303	49.175792	41.827745	63.425412
65	5	3	1.5785306	51.157513	42.0999	65.291829
66	5	4	-0.66341273	51.007457	43.555017	65.450225
67	5	4	-0.66341273	50.474596	41.198177	66.234303
68	5	5	-0.98629526	52.729411	41.790142	65.365067
69	5	3	1.5785306	53.231869	41.765623	66.884799
70	5	4	-0.66341273	52.734065	42.962441	67.58297
71	5	4	-0.66341273	52.875423	40.431952	67.399731
72	5	1	0.53867169	55.148163	41.86687	66.893535
73	5	2	-0.26574309	55.711908	40.933251	66.062989
74	5	2	-0.26574309	55.597787	43.101907	66.505246
75	5	2	-0.26574309	55.639734	41.631236	68.148994
76	6	1	0.53867169	48.511086	21.155944	58.99879
77	6	2	-0.26574303	47.190952	21.466825	58.822184
78	6	2	-0.26574303	49.259615	22.094221	58.334408
79	6	2	-0.26574303	48.730354	19.979494	58.334632
80	6	3	1.5785306	48.949533	20.98341	60.879412
81	6	4	-0.66341273	48.509331	19.648981	61.32133
82	6	4	-0.66341273	50.367918	21.295669	61.108265
83	6	5	-0.98629526	48.04574	21.911077	61.836543
84	6	3	1.5785306	48.54053	23.427558	61.810389
85	6	4	-0.66341273	49.71529	23.495796	62.689409
86	6	4	-0.66341273	48.654685	23.801091	60.395265
87	6	1	0.53867169	47.1665	24.507585	62.61272
88	6	2	-0.26574309	46.001062	24.459915	61.892109
89	6	2	-0.26574309	46.877365	24.083195	63.885713
90	6	2	-0.26574309	47.534466	25.82268	62.700253
91	7	1	0.53867169	74.019518	62.113638	40.510468
92	7	2	-0.26574303	75.011301	61.848125	41.419158
93	7	2	-0.26574303	72.835994	61.688094	41.057229
94	7	2	-0.26574303	74.257169	61.33112	39.409103
95	7	3	1.5785306	73.954973	63.976989	40.039434
96	7	4	-0.66341273	75.298758	64.376817	39.589806
97	7	4	-0.66341273	72.819877	64.163728	39.117408
98	7	5	-0.98629526	73.687725	64.8423	41.3591
99	7	3	1.5785306	73.103328	66.286397	40.993528
100	7	4	-0.66341273	73.84841	66.816335	39.832129
101	7	4	-0.66341273	71.64979	66.102142	40.871286
102	7	1	0.53867169	73.429813	67.471299	42.476158
103	7	2	-0.26574309	72.711415	67.123537	43.589787
104	7	2	-0.26574309	74.752684	67.477674	42.836061
105	7	2	-0.26574309	73.107824	68.767166	42.164869
106	8	1	0.53867169	-7.7544415	68.654461	62.905154
107	8	2	-0.26574303	-6.6064626	68.023362	62.490845
108	8	2	-0.26574303	-8.6586219	67.656932	63.170877
109	8	2	-0.26574303	-8.2361436	69.334421	61.815038
110	8	3	1.5785306	-7.4569565	69.787612	64.430761
111	8	4	-0.66341273	-6.3813567	70.719428	64.058118
112	8	4	-0.66341273	-8.7793487	70.285101	64.840593
113	8	5	-0.98629526	-6.8487668	68.863955	65.589471
114	8	3	1.5785306	-7.0991397	69.546733	67.021527
115	8	4	-0.66341273	-6.8288535	70.989461	66.915808
116	8	4	-0.66341273	-8.4276229	69.066429	67.437091
117	8	1	0.53867169	-5.8217961	68.818974	68.266749
118	8	2	-0.26574309	-5.9245431	67.452607	68.365297
119	8	2	-0.26574309	-4.5294186	69.093466	67.897062
120	8	2	-0.26574309	-5.9960938	69.324183	69.530907
121	9	1	0.53867169	27.121985	60.883479	16.385945
122	9	2	-0.26574303	26.550317	60.124221	15.401672
123	9	2	-0.26574303	26.448903	60.639391	17.556113
124	9	2	-0.26574303	26.914201	62.197266	16.051893
125	9	3	1.5785306	28.991733	60.515885	16.571862
126	9	4	-0.66341273	29.591935	60.606456	15.231605
127	9	4	-0.66341273	29.501386	61.383262	17.653029
128	9	5	-0.98629526	29.180243	58.993335	17.029706
129	9	3	1.5785306	30.643113	58.759675	17.654936
130	9	4	-0.66341273	31.634209	59.467707	16.825808
131	9	4	-0.66341273	30.531886	59.173532	19.06374
132	9	1	0.53867169	31.036849	56.87953	17.583216
133	9	2	-0.26574309	30.114636	56.140766	18.276281
134	9	2	-0.26574309	31.019385	56.425834	16.289753
135	9	2	-0.26574309	32.275038	56.597371	18.09122
136	10	1	0.53867169	33.571308	53.182206	14.015741
137	10	2	-0.26574303	33.668475	53.48825	15.346777
138	10	2	-0.26574303	34.436107	52.142258	13.76844
139	10	2	-0.26574303	34.029734	54.260917	13.304479
140	10	3	1.5785306	31.77922	52.714782	13.504156
141	10	4	-0.66341273	30.884342	53.82803	13.863653
142	10	4	-0.66341273	31.840377	52.252951	12.104161
143	10	5	-0.98629526	31.293745	51.474805	14.400091
144	10	3	1.5785306	30.053411	50.737891	13.710513
145	10	4	-0.66341273	29.187405	51.741772	13.07502
146	10	4	-0.66341273	30.689843	49.698119	12.882346
147	10	1	0.53867169	29.028769	49.86115	15.076233
148	10	2	-0.26574309	29.754863	48.894114	15.723897
149	10	2	-0.26574309	28.58623	50.741267	16.026516
150	10	2	-0.26574309	27.932179	49.240212	14.556062
151	11	1	0.53867169	34.513359	55.185618	30.079353
152	11	2	-0.26574303	33.613091	56.045971	30.648806
153	11	2	-0.26574303	35.089931	55.839481	29.026713
154	11	2	-0.26574303	33.781025	54.166999	29.528403
155	11	3	1.5785306	35.783491	54.523807	31.390479
156	11	4	-0.66341273	35.043521	53.737626	32.388346
157	11	4	-0.66341273	36.904619	53.811502	30.749481
158	11	5	-0.98629526	36.390667	55.695934	32.314727
159	11	3	1.5785306	37.693055	56.341929	31.664381
160	11	4	-0.66341273	38.802621	55.477376	32.105775
161	11	4	-0.66341273	37.456956	56.519361	30.225971
162	11	1	0.53867169	37.99108	58.083549	32.415349
163	11	2	-0.26574309	36.928422	58.922529	32.218082
164	11	2	-0.26574309	38.235576	58.02968	33.763173
165	11	2	-0.26574309	39.085588	58.673973	31.838174
166	12	1	0.53867169	56.639562	59.169745	49.215946
167	12	2	-0.26574303	55.854597	59.985051	49.983926
168	12	2	-0.26574303	57.306032	58.325911	50.068822
169	12	2	-0.26574303	57.586317	59.947858	48.605208
170	12	3	1.5785306	55.610161	58.174329	47.939386
171	12	4	-0.66341273	54.908862	59.125757	47.064939
172	12	4	-0.66341273	56.512542	57.17979	47.336354
173	12	5	-0.98629526	54.444852	57.385268	48.721375
174	12	3	1.5785306	53.917427	56.158562	47.835875
175	12	4	-0.66341273	53.743525	56.625004	46.449232
176	12	4	-0.66341273	54.847741	55.054317	48.126688
177	12	1	0.53867169	52.18379	55.648913	48.482332
178	12	2	-0.26574309	52.203984	55.387964	49.828053
179	12	2	-0.26574309	51.264315	56.645956	48.283362
180	12	2	-0.26574309	51.716871	54.527464	47.850351
181	13	1	0.53867169	58.40179	19.579527	44.131393
182	13	2	-0.26574303	58.244934	20.914357	43.85982
183	13	2	-0.26574303	58.869681	18.993123	42.983155
184	13	2	-0.26574303	57.146382	19.070846	44.349489
185	13	3	1.5785306	59.569845	19.258218	45.630126
186	13	4	-0.66341273	59.0344	20.014553	46.774893
187	13	4	-0.66341273	59.729233	17.797323	45.736036
188	13	5	-0.98629526	60.999374	19.908575	45.31179
189	13	3	1.5785306	62.137408	19.228017	46.206956
190	13	4	-0.66341273	61.645484	19.077617	47.586713
191	13	4	-0.66341273	62.566524	18.040692	45.446744
192	13	1	0.53867169	63.644128	20.409358	46.30404
193	13	2	-0.26574309	64.275255	20.560801	45.09449
194	13	2	-0.26574309	63.301678	21.656148	46.75384
195	13	2	-0.26574309	64.576406	19.923058	47.179856
196	14	1	0.53867169	65.253029	37.720449	65.800672
197	14	2	-0.26574303	64.950156	38.113115	64.523892
198	14	2	-0.26574303	65.461154	36.362658	65.771918
199	14	2	-0.26574303	64.140248	37.921481	66.573911
200	14	3	1.5785306	66.780734	38.64557	66.512609
201	14	4	-0.66341273	66.542206	40.089574	66.364307
202	14	4	-0.66341273	67.019467	38.085144	67.859001
203	14	5	-0.98629526	68.040481	38.309007	65.586591
204	14	3	1.5785306	69.41299	38.590369	66.361918
205	14	4	-0.66341273	69.29101	39.866331	67.088795
206	14	4	-0.66341273	69.669261	37.360034	67.133474
207	14	1	0.53867169	70.826802	38.774109	65.064511
208	14	2	-0.26574309	70.979376	37.633836	64.31881
209	14	2	-0.26574309	70.595078	39.798045	64.182124
210	14	2	-0.26574309	72.032609	39.022443	65.665007
211	15	1	0.53867169	62.583408	53.939028	77.659369
212	15	2	-0.26574303	63.76307	53.236489	77.681303
213	15	2	-0.26574303	62.900867	55.254707	77.873502
214	15	2	-0.26574303	61.827149	53.513417	78.719106
215	15	3	1.5785306	61.669393	53.69761	75.988622
216	15	4	-0.66341273	61.500535	52.250099	75.775161
217	15	4	-0.66341273	60.484838	54.572701	75.982924
218	15	5	-0.98629526	62.664404	54.146204	74.807982
219	15	3	1.5785306	61.829882	54.536815	73.492532
220	15	4	-0.66341273	60.809746	53.49256	73.28321
221	15	4	-0.66341273	61.41993	55.936136	73.688235
222	15	1	0.53867169	63.034983	54.484968	72.002592
223	15	2	-0.26574309	64.018078	55.434103	72.111549
224	15	2	-0.26574309	63.666019	53.271093	71.937652
225	15	2	-0.26574309	62.388926	54.690075	70.813198
226	16	1	0.53867169	32.608044	52.843237	67.18008
227	16	2	-0.26574303	31.975906	51.795998	67.796621
228	16	2	-0.26574303	33.282473	52.311201	66.119471
229	16	2	-0.26574303	33.566597	53.301549	68.047986
230	16	3	1.5785306	31.351814	54.231629	66.685286
231	16	4	-0.66341273	30.479403	54.491215	67.844167
232	16	4	-0.66341273	32.067201	55.398412	66.142936
233	16	5	-0.98629526	30.269444	53.676152	65.627337
234	16	3	1.5785306	30.670121	54.059396	64.128122
235	16	4	-0.66341273	30.245969	55.458684	63.962231
236	16	4	-0.66341273	32.074933	53.672628	63.950739
237	16	1	0.53867169	29.615917	52.987018	62.931314
238	16	2	-0.26574309	29.770026	51.650004	63.187571
239	16	2	-0.26574309	28.276412	53.25841	63.050985
240	16	2	-0.26574309	29.96032	53.193464	61.620851
241	17	1	0.53867169	22.998097	65.445042	57.779393
242	17	2	-0.26574303	23.975129	66.281571	58.252144
243	17	2	-0.26574303	22.901154	65.664077	56.430545
244	17	2	-0.26574303	21.806283	65.827293	58.339453
245	17	3	1.5785306	23.395624	63.609796	58.169904
246	17	4	-0.66341273	23.750596	63.533173	59.595752
247	17	4	-0.66341273	22.287133	62.800927	57.63566
248	17	5	-0.98629526	24.743874	63.213825	57.39778
249	17	3	1.5785306	24.835484	61.620164	57.220631
250	17	4	-0.66341273	24.404569	60.973763	58.470068
251	17	4	-0.66341273	24.124954	61.341815	55.962143
252	17	1	0.53867169	26.685328	61.179576	56.963191
253	17	2	-0.26574309	27.227368	61.888776	55.92557
254	17	2	-0.26574309	27.426887	61.481419	58.075218
255	17	2	-0.26574309	26.88154	59.849672	56.692152
256	18	1	0.53867169	38.2356	50.020971	63.622046
257	18	2	-0.26574303	38.872724	49.749341	62.439785
258	18	2	-0.26574303	38.922005	51.046557	64.221826
259	18	2	-0.26574303	38.377287	48.922992	64.431262
260	18	3	1.5785306	36.383846	50.469985	63.369093
261	18	4	-0.66341273	35.765972	49.401813	62.567539
262	18	4	-0.66341273	35.836406	50.772753	64.701285
263	18	5	-0.98629526	36.299102	51.788278	62.450476
264	18	3	1.5785306	34.90633	52.544513	62.698226
265	18	4	-0.66341273	33.846905	51.523266	62.709737
266	18	4	-0.66341273	35.167432	53.421288	63.853836
267	18	1	0.53867169	34.570513	53.665648	61.180029
268	18	2	-0.26574309	35.586579	54.562159	60.970335
269	18	2	-0.26574309	34.453111	52.921762	60.032659
270	18	2	-0.26574309	33.413742	54.379563	61.317163
271	19	1	0.53867169	50.862589	68.993559	16.049476
272	19	2	-0.26574303	50.759835	69.839125	14.974
273	19	2	-0.26574303	51.851482	69.47844	16.866601
274	19	2	-0.26574303	51.290154	67.77946	15.576587
275	19	3	1.5785306	49.194584	68.82556	16.986206
276	19	4	-0.66341273	48.172059	68.445673	15.995729
277	19	4	-0.66341273	49.438119	67.955179	18.151425
278	19	5	-0.98629526	48.751926	70.276103	17.501923
279	19	3	1.5785306	47.737994	70.159187	18.736495
280	19	4	-0.66341273	46.742911	69.121833	18.414383
281	19	4	-0.66341273	48.593736	70.006709	19.927535
282	19	1	0.53867169	46.796012	71.831365	18.903874
283	19	2	-0.26574309	47.65326	72.888813	19.067601
284	19	2	-0.26574309	46.036458	72.098985	17.791827
285	19	2	-0.26574309	45.948553	71.835847	19.981362
286	20	1	0.53867169	50.919118	21.173654	42.663021
287	20	2	-0.26574303	51.269188	21.799791	41.492801
288	20	2	-0.26574303	52.054057	21.124253	43.431249
289	20	2	-0.26574303	50.598173	19.882363	42.338991
290	20	3	1.5785306	49.469905	22.063386	43.577285
291	20	4	-0.66341273	48.358064	22.20612	42.622128
292	20	4	-0.66341273	49.250803	21.353776	44.84931
293	20	5	-0.98629526	49.920449	23.570514	43.908272
294	20	3	1.5785306	49.017673	24.178042	45.086608
295	20	4	-0.66341273	47.609391	23.868568	44.79516
296	20	4	-0.66341273	49.624949	23.702636	46.341391
297	20	1	0.53867169	49.200377	26.094048	45.07164
298	20	2	-0.26574309	50.504389	26.482666	45.241823
299	20	2	-0.26574309	48.771324	26.648076	43.895369
300	20	2	-0.26574309	48.485246	26.678658	46.086364
301	21	1	0.53867169	34.106474	21.002409	59.252715
302	21	2	-0.26574303	34.559712	19.893498	59.917946
303	21	2	-0.26574303	34.61339	20.976524	57.984276
304	21	2	-0.26574303	34.660282	22.09177	59.868088
305	21	3	1.5785306	32.186818	21.120439	59.255486
306	21	4	-0.66341273	31.765325	21.202509	60.663323
307	21	4	-0.66341273	31.810844	22.219088	58.344769
308	21	5	-0.98629526	31.564114	19.756457	58.684392
309	21	3	1.5785306	30.025237	19.969686	58.267226
310	21	4	-0.66341273	29.375103	20.784585	59.308376
311	21	4	-0.66341273	30.052161	20.491209	56.888781
312	21	1	0.53867169	29.119518	18.26932	58.253112
313	21	2	-0.26574309	29.71297	17.350847	57.440686
314	21	2	-0.26574309	29.05422	17.712895	59.505839
315	21	2	-0.26574309	27.832167	18.398391	57.81476
316	22	1	0.53867169	63.757234	56.56311	54.335351
317	22	2	-0.26574303	63.630056	56.357498	55.68511
318	22	2	-0.26574303	64.523001	55.550561	53.828602
319	22	2	-0.26574303	64.502845	57.701874	54.195099
320	22	3	1.5785306	62.031293	56.760964	53.47384
321	22	4	-0.66341273	61.635461	58.171802	53.620892
322	22	4	-0.66341273	62.054839	56.249957	52.093868
323	22	5	-0.98629526	60.846677	56.022973	54.273944
324	22	3	1.5785306	60.861731	54.453082	53.984165
325	22	4	-0.66341273	60.100403	54.285312	52.732835
326	22	4	-0.66341273	62.257085	54.004583	54.062557
327	22	1	0.53867169	59.882574	53.560452	55.37529
328	22	2	-0.26574309	60.446291	53.770437	56.605792
329	22	2	-0.26574309	58.58315	53.997993	55.44045
330	22	2	-0.26574309	59.840803	52.207465	55.163121
331	23	1	0.53867169	8.4808654	26.925113	27.544191
332	23	2	-0.26574303	7.6124316	26.934702	28.604877
333	23	2	-0.26574303	9.7475064	26.993032	28.058286
334	23	2	-0.26574303	8.2651579	28.088717	26.850393
335	23	3	1.5785306	8.2432824	25.372245	26.440542
336	23	4	-0.66341273	6.8152875	25.315561	26.088128
337	23	4	-0.66341273	9.2725945	25.423725	25.386827
338	23	5	-0.98629526	8.5260117	24.073319	27.332928
339	23	3	1.5785306	8.7686688	22.79109	26.392536
340	23	4	-0.66341273	7.8445333	22.842352	25.247076
341	23	4	-0.66341273	10.22015	22.797439	26.142297
342	23	1	0.53867169	8.3707172	21.209893	27.408354
343	23	2	-0.26574309	9.1283643	21.149278	28.552465
344	23	2	-0.26574309	7.0554614	21.16781	27.791131
345	23	2	-0.26574309	8.6301762	20.071332	26.690919
346	24	1	0.53867169	50.414443	27.651377	60.21771
347	24	2	-0.26574303	50.348392	27.133932	58.950663
348	24	2	-0.26574303	51.732697	27.670512	60.589652
349	24	2	-0.26574303	49.824047	26.725249	61.036549
350	24	3	1.5785306	49.49894	29.360297	60.341334
351	24	4	-0.66341273	48.058424	29.065995	60.453534
352	24	4	-0.66341273	50.05918	30.182807	61.422682
353	24	5	-0.98629526	49.521132	30.196104	58.965759
354	24	3	1.5785306	50.92948	30.933788	58.781323
355	24	4	-0.66341273	50.810347	32.179928	59.554892
356	24	4	-0.66341273	51.967402	29.944108	59.097056
357	24	1	0.53867169	51.144629	31.439419	56.939354
358	24	2	-0.26574309	51.317449	30.352492	56.125779
359	24	2	-0.26574309	50.063076	32.149513	56.472759
360	24	2	-0.26574309	52.244663	32.236967	56.763887
361	25	1	0.53867169	25.935345	60.969682	74.174905
362	25	2	-0.26574303	25.908353	59.871745	73.349195
363	25	2	-0.26574303	27.076397	61.662111	73.862524
364	25	2	-0.26574303	26.055598	60.514665	75.46092
365	25	3	1.5785306	24.366522	62.054439	73.940058
366	25	4	-0.66341273	23.195264	61.193032	74.170322
367	25	4	-0.66341273	24.538074	63.27702	74.73949
368	25	5	-0.98629526	24.280608	62.443705	72.381792
369	25	3	1.5785306	23.373005	63.753843	72.182245
370	25	4	-0.66341273	22.143013	63.567572	72.968612
371	25	4	-0.66341273	24.260356	64.890614	72.472548
372	25	1	0.53867169	22.880971	63.869195	70.326881
373	25	2	-0.26574309	23.989849	63.875222	69.516811
374	25	2	-0.26574309	22.108147	62.806134	69.939466
375	25	2	-0.26574309	22.169673	65.008631	70.059142
376	26	1	0.53867169	55.316153	17.287933	17.267922
377	26	2	-0.26574303	56.567545	17.074063	16.748784
378	26	2	-0.26574303	54.461803	16.464862	16.583003
379	26	2	-0.26574303	54.966865	18.577166	16.958662
380	26	3	1.5785306	55.262341	16.98755	19.171803
381	26	4	-0.66341273	56.293836	17.856525	19.762281
382	26	4	-0.66341273	53.857512	17.115711	19.60171
383	26	5	-0.98629526	55.736566	15.48995	19.468774
384	26	3	1.5785306	55.334325	15.045964	20.958135
385	26	4	-0.66341273	55.617309	16.151363	21.889501
386	26	4	-0.66341273	53.958597	14.527341	20.839925
387	26	1	0.53867169	56.473274	13.568903	21.442397
388	26	2	-0.26574309	56.300278	12.501589	20.594592
389	26	2	-0.26574309	57.800217	13.908368	21.389241
390	26	2	-0.26574309	56.239076	13.113868	22.710445
391	27	1	0.53867169	33.253591	46.641002	59.975839
392	27	2	-0.26574303	32.374585	45.959411	60.780048
393	27	2	-0.26574303	33.755276	47.680559	60.711808
394	27	2	-0.26574303	32.524576	47.18729	58.952584
395	27	3	1.5785306	34.660628	45.504255	59.329162
396	27	4	-0.66341273	34.030869	44.389825	58.601427
397	27	4	-0.66341273	35.633976	46.365995	58.642182
398	27	5	-0.98629526	35.36279	44.818239	60.596952
399	27	3	1.5785306	36.864963	44.392481	60.250869
400	27	4	-0.66341273	36.851907	43.689041	58.956842
401	27	4	-0.66341273	37.666645	45.613341	60.431828
402	27	1	0.53867169	37.456138	43.130369	61.578102
403	27	2	-0.26574309	37.507086	43.682704	62.83103
404	27	2	-0.26574309	36.618378	42.049594	61.665902
405	27	2	-0.26574309	38.706059	42.646976	61.292915
406	28	1	0.53867169	35.620875	17.759624	37.42542
407	28	2	-0.26574303	35.110579	18.582336	38.398817
408	28	2	-0.26574303	36.292062	16.756927	38.069844
409	28	2	-0.26574303	36.547127	18.499728	36.739731
410	28	3	1.5785306	34.248691	17.08563	36.261687
411	28	4	-0.66341273	33.445888	18.242418	35.825071
412	28	4	-0.66341273	34.906449	16.264604	35.235653
413	28	5	-0.98629526	33.245845	16.173197	37.126286
414	28	3	1.5785306	32.490933	15.1267	36.168296
415	28	4	-0.66341273	32.050805	15.841521	34.956939
416	28	4	-0.66341273	33.402972	13.979145	36.064095
417	28	1	0.53867169	30.91368	14.50702	37.071347
418	28	2	-0.26574309	31.222715	13.856282	38.240926
419	28	2	-0.26574309	30.081904	15.540853	37.403984
420	28	2	-0.26574309	30.191798	13.636183	36.298463
421	29	1	0.53867169	59.890308	46.971312	21.567283
422	29	2	-0.26574303	59.939146	48.17224	20.905693
423	29	2	-0.26574303	61.145921	46.421137	21.506281
424	29	2	-0.26574303	59.039059	46.151767	20.873711
425	29	3	1.5785306	59.328794	47.209558	23.383329
426	29	4	-0.66341273	58.025112	47.890592	23.354707
427	29	4	-0.66341273	59.475732	45.914321	24.059153
428	29	5	-0.98629526	60.32639	48.267798	24.077351
429	29	3	1.5785306	60.264616	48.103294	25.678198
430	29	4	-0.66341273	58.853579	47.971168	26.081316
431	29	4	-0.66341273	61.250396	47.053332	25.976195
432	29	1	0.53867169	60.910711	49.730992	26.467648
433	29	2	-0.26574309	62.201276	50.010581	26.100426
434	29	2	-0.26574309	60.162096	50.805459	26.077433
435	29	2	-0.26574309	60.859818	49.710627	27.835562
436	30	1	0.53867169	16.685805	58.867955	59.518943
437	30	2	-0.26574303	17.725552	59.248872	58.70831
438	30	2	-0.26574303	16.814017	57.523994	59.748526
439	30	2	-0.26574303	15.525292	59.069166	58.820577
440	30	3	1.5785306	16.705059	59.877543	61.146011
441	30	4	-0.66341273	16.849344	61.296225	60.772538
442	30	4	-0.66341273	15.542108	59.471078	61.950588
443	30	5	-0.98629526	18.066221	59.548674	61.934419
444	30	3	1.5785306	17.889402	59.852052	63.498111
445	30	4	-0.66341273	17.310519	61.203132	63.619804
446	30	4	-0.66341273	17.192229	58.690934	64.068694
447	30	1	0.53867169	19.626119	59.920363	64.316931
448	30	2	-0.26574309	20.361366	58.789997	64.072857
449	30	2	-0.26574309	20.357265	60.988727	63.865237
450	30	2	-0.26574309	19.523894	60.059967	65.676489
451	31	1	0.53867169	53.538814	40.650048	71.28582
452	31	2	-0.26574303	52.96607	41.363187	70.267153
453	31	2	-0.26574303	53.074937	41.191392	72.45409
454	31	2	-0.26574303	54.886131	40.876088	71.240931
455	31	3	1.5785306	53.144593	38.775547	71.166883
456	31	4	-0.66341273	53.665681	38.279402	69.883857
457	31	4	-0.66341273	53.566895	38.155789	72.434883
458	31	5	-0.98629526	51.556463	38.585694	71.127071
459	31	3	1.5785306	51.156826	37.0874	70.667486
460	31	4	-0.66341273	52.217898	36.132936	71.034255
461	31	4	-0.66341273	49.87711	36.92683	71.376143
462	31	1	0.53867169	50.792007	36.989841	68.772998
463	31	2	-0.26574309	49.899516	37.953706	68.387065
464	31	2	-0.26574309	51.902795	37.138727	67.994738
465	31	2	-0.26574309	50.245838	35.779521	68.439569
466	32	1	0.53867169	0.29184107	26.154518	17.793139
467	32	2	-0.26574303	1.211622	25.448041	17.065115
468	32	2	-0.26574303	0.79442888	26.319377	19.059402
469	32	2	-0.26574303	-0.81390403	25.350807	17.897314
470	32	3	1.5785306	-0.15662476	27.841835	16.97597
471	32	4	-0.66341273	-0.30163085	27.61194	15.530443
472	32	4	-0.66341273	-1.254306	28.42315	17.766711
473	32	5	-0.98629526	1.0493527	28.873873	17.170541
474	32	3	1.5785306	0.91870263	30.1215	16.151749
475	32	4	-0.66341273	-0.50022811	30.441277	15.930405
476	32	4	-0.66341273	1.6770814	31.157253	16.871731
477	32	1	0.53867169	1.8241549	29.80583	14.465674
478	32	2	-0.26574309	3.0574924	29.234006	14.651023
479	32	2	-0.26574309	1.130463	29.006522	13.598107
480	32	2	-0.26574309	2.0347969	30.982838	13.794012
481	33	1	0.53867169	66.686988	18.088566	-0.78300402
482	33	2	-0.26574303	67.904706	17.506571	-1.0242344
483	33	2	-0.26574303	65.92463	17.856498	-1.8993753
484	33	2	-0.26574303	66.894622	19.440835	-0.70732296
485	33	3	1.5785306	65.85916	17.387476	0.80904245
486	33	4	-0.66341273	66.874089	17.411278	1.8736076
487	33	4	-0.66341273	64.575653	18.086411	0.98929808
488	33	5	-0.98629526	65.532265	15.834645	0.55313032
489	33	3	1.5785306	64.454684	15.298874	1.6211325
490	33	4	-0.66341273	64.747238	15.87917	2.9406297
491	33	4	-0.66341273	63.154798	15.56049	0.97671501
492	33	1	0.53867169	64.649253	13.392133	1.7651406
493	33	2	-0.26574309	64.475799	12.782979	0.5468509
494	33	2	-0.26574309	65.893493	13.039058	2.2204398
495	33	2	-0.26574309	63.728294	12.848728	2.6206914
496	34	1	0.53867169	19.429792	17.651544	39.121819
497	34	2	-0.26574303	18.271679	17.042996	39.519465
498	34	2	-0.26574303	20.071964	18.042401	40.263963
499	34	2	-0.26574303	19.065574	18.804612	38.479226
500	34	3	1.5785306	20.465803	16.493536	37.960739
501	34	4	-0.66341273	19.569507	16.071438	36.870465
502	34	4	-0.66341273	21.69837	17.171365	37.538791
503	34	5	-0.98629526	20.827887	15.102398	38.688469
504	34	3	1.5785306	22.240109	15.184398	39.433119
505	34	4	-0.66341273	23.271551	14.974904	38.406706
506	34	4	-0.66341273	22.250197	16.422561	40.230961
507	34	1	0.53867169	22.35373	13.718635	40.672083
508	34	2	-0.26574309	21.370296	13.784372	41.626763
509	34	2	-0.26574309	22.22018	12.500248	40.055332
510	34	2	-0.26574309	23.548739	13.700755	41.342359
511	35	1	0.53867169	12.446215	28.100035	42.230129
512	35	2	-0.26574303	11.331971	28.068297	43.027973
513	35	2	-0.26574303	12.006174	28.141117	40.933361
514	35	2	-0.26574303	13.106391	26.911676	42.393379
515	35	3	1.5785306	13.565644	29.606433	42.650504
516	35	4	-0.66341273	13.94511	29.485149	44.06651
517	35	4	-0.66341273	14.581435	29.715636	41.591558
518	35	5	-0.98629526	12.677035	30.944805	42.586713
519	35	3	1.5785306	13.628415	32.246165	42.53221
520	35	4	-0.66341273	14.815271	32.033885	43.373351
521	35	4	-0.66341273	13.791511	32.527184	41.096997
522	35	1	0.53867169	12.675781	33.725035	43.301268
523	35	2	-0.26574309	11.515045	33.992474	42.625799
524	35	2	-0.26574309	12.330353	33.472211	44.604106
525	35	2	-0.26574309	13.430278	34.870389	43.292742
526	36	1	0.53867169	52.42228	15.525941	36.633377
527	36	2	-0.26574303	51.40099	15.461631	37.54674
528	36	2	-0.26574303	52.625155	14.264404	36.136069
529	36	2	-0.26574303	53.556352	15.833763	37.337692
530	36	3	1.5785306	52.07788	16.851979	35.26819
531	36	4	-0.66341273	52.594585	18.136848	35.758491
532	36	4	-0.66341273	52.601156	16.425123	33.959851
533	36	5	-0.98629526	50.516257	17.20343	35.098724
534	36	3	1.5785306	49.785767	16.057957	34.263482
535	36	4	-0.66341273	49.989572	16.459211	32.860668
536	36	4	-0.66341273	50.296464	14.775323	34.755948
537	36	1	0.53867169	47.896681	16.120681	34.609694
538	36	2	-0.26574309	47.59378	15.752984	35.89447
539	36	2	-0.26574309	47.383914	17.376605	34.414954
540	36	2	-0.26574309	47.205482	15.287726	33.765664
541	37	1	0.53867169	58.810053	26.352682	50.182939
542	37	2	-0.26574303	58.053021	26.981182	49.227252
543	37	2	-0.26574303	58.477688	25.021992	50.169234
544	37	2	-0.26574303	58.42176	26.850493	51.401548
545	37	3	1.5785306	60.693316	26.608355	49.891415
546	37	4	-0.66341273	60.942574	28.058772	49.810419
547	37	4	-0.66341273	61.400452	25.821242	50.916486
548	37	5	-0.98629526	61.074696	26.04208	48.441701
549	37	3	1.5785306	62.630186	25.680611	48.368287
550	37	4	-0.66341273	63.391309	26.811557	48.933988
551	37	4	-0.66341273	62.759199	24.342666	48.963594
552	37	1	0.53867169	63.146739	25.536084	46.522422
553	37	2	-0.26574309	62.362103	24.661083	45.82243