Title

12900 atoms
12600 bonds
22800 angles
35700 dihedrals
4500 impropers

11 atom types
11 bond types
8 angle types
22 dihedral types
4 improper types
-14.01063323 65.98936677 xlo xhi
-5.000170469 74.99982953 ylo yhi
-7.712890506 72.28710949 zlo zhi
0.0 0.0 0.0 xy xz yz

Masses

1	12.01078
2	18.998403
3	32.0655
4	15.99943
5	14.00672
6	12.01078
7	1.007947
8	1.007947
9	1.007947
10	1.007947
11	1.007947


Pair Coeffs

1	0.10884061	3.3795318
2	0.061	3.1181455
3	0.25	3.5635949
4	0.2102061	3.0398122
5	0.16769152	3.206876
6	0.086879315	3.4806469
7	0.015779483	2.6445434
8	0.016409246	2.5832257
9	0.013106998	2.4536265
10	0.0157	1.9599772
11	0.014797445	2.4419228

Bond Coeffs

1 harmonic	287.91882093395	1.359315559786
2 harmonic	156.8711507117	1.812798632943
3 harmonic	608.035974961	1.469758533467
4 harmonic	239.8447873633	1.642019753341
5 harmonic	215.30139056395	1.533627603844
6 harmonic	357.8191474159	1.094206460752
7 harmonic	225.97114073395	1.477375101044
8 harmonic	329.26307138675	1.389502949007
9 harmonic	452.0241811971	1.373209032276
10 harmonic	386.4399368291	1.08603610657
11 harmonic	505.163639116	1.309372378949


Angle Coeffs

1 harmonic	119.7125597221	107.2128707706
2 harmonic	66.75631831595	109.9380527584
3 harmonic	124.0884341307	113.2116558678
4 harmonic	94.25109102650001	120.4494266916
5 harmonic	79.47831834420001	121.7705343867
6 harmonic	91.51855890415	108.1730591511
7 harmonic	50.901762366	124.801611398
8 harmonic	36.776637850755	108.3543135269


Dihedral Coeffs

1 fourier 1	-1.572239594429	1	180
2 fourier 1	0.316444679891	2	0
3 fourier 1	0.1426731536269	3	0
4 fourier 1	0.2057583936885	3	0
5 fourier 1	0.3549667638131	3	0
6 fourier 1	0.2399307824079	2	180
7 fourier 1	0.9156101580834	1	180
8 fourier 1	0.0985377828486	3	0
9 fourier 1	0.143904881748	3	0
10 fourier 1	0.3215160932459	2	0
11 fourier 1	0.2510071310501	3	0
12 fourier 1	-0.1108037280545	4	180
13 fourier 1	-0.2219080374426	3	180
14 fourier 1	0.8434650381516	2	0
15 fourier 1	-0.1523281600983	1	0
16 fourier 1	1.469128273675	2	180
17 fourier 1	4.626306460904	2	180
18 fourier 1	1.012490953194	2	180
19 fourier 1	1.409955177277	2	180
20 fourier 1	1.079567853188	2	180
21 fourier 1	1.601769915929	1	0
22 fourier 1	0.2279946533057	3	0


Improper Coeffs

1 5.335286357863333	-1	2
2 1.743596855104667	-1	2
3 3.374156584723333	-1	2
4 0.4187541668506667	-1	2


Atoms

1	1	1	0.53867169	12.744073	62.9006	36.686797
2	1	2	-0.26574303	12.053186	62.278934	35.677197
3	1	2	-0.26574303	14.07539	62.677002	36.445608
4	1	2	-0.26574303	12.421235	62.243199	37.846475
5	1	3	1.5785306	12.342278	64.777346	36.770144
6	1	4	-0.66341273	10.874718	64.885173	36.756077
7	1	4	-0.66341273	13.133467	65.325284	37.881601
8	1	5	-0.98629526	12.836636	65.45311	35.390842
9	1	3	1.5785306	12.999324	67.047334	35.620508
10	1	4	-0.66341273	11.885525	67.531538	36.450603
11	1	4	-0.66341273	14.392002	67.213469	36.066208
12	1	1	0.53867169	12.845864	67.937341	33.917999
13	1	2	-0.26574309	13.906934	67.664423	33.093598
14	1	2	-0.26574309	11.715332	67.554984	33.241284
15	1	2	-0.26574309	12.799867	69.300704	34.055367
16	2	1	0.53867169	15.466782	62.510891	62.358332
17	2	2	-0.26574303	14.840384	63.72613	62.465258
18	2	2	-0.26574303	15.692625	62.060633	63.634138
19	2	2	-0.26574303	16.698923	62.733259	61.796207
20	2	3	1.5785306	14.447557	61.24105	61.332955
21	2	4	-0.66341273	14.103707	61.883545	60.057807
22	2	4	-0.66341273	15.221826	59.988394	61.333427
23	2	5	-0.98629526	13.063322	60.975285	62.093735
24	2	3	1.5785306	12.400129	59.603	61.590953
25	2	4	-0.66341273	12.551214	59.479933	60.131111
26	2	4	-0.66341273	13.00354	58.571734	62.45059
27	2	1	0.53867169	10.529699	59.638338	62.017202
28	2	2	-0.26574309	10.341862	59.612231	63.374162
29	2	2	-0.26574309	9.9047709	60.769563	61.570306
30	2	2	-0.26574309	9.8676068	58.548603	61.518254
31	3	1	0.53867169	5.4510093	13.864876	52.706456
32	3	2	-0.26574303	4.136866	13.484436	52.609897
33	3	2	-0.26574303	5.852527	13.570288	53.981724
34	3	2	-0.26574303	5.485146	15.22452	52.568517
35	3	3	1.5785306	6.5390438	12.973657	51.396046
36	3	4	-0.66341273	5.9370077	13.216093	50.073833
37	3	4	-0.66341273	7.9416955	13.354448	51.61901
38	3	5	-0.98629526	6.3987434	11.387439	51.632929
39	3	3	1.5785306	7.6364034	10.608454	50.981555
40	3	4	-0.66341273	7.8132856	11.12572	49.615493
41	3	4	-0.66341273	8.737272	10.68513	51.956873
42	3	1	0.53867169	7.1525156	8.7565762	50.821166
43	3	2	-0.26574309	6.8589258	8.2021081	52.040205
44	3	2	-0.26574309	6.0460138	8.5963941	50.024724
45	3	2	-0.26574309	8.1646144	8.0167794	50.268216
46	4	1	0.53867169	51.14594	68.810329	40.960007
47	4	2	-0.26574303	50.217924	68.589172	39.972281
48	4	2	-0.26574303	50.443091	69.098125	42.103796
49	4	2	-0.26574303	51.832366	69.944186	40.623436
50	4	3	1.5785306	52.328858	67.312555	41.175914
51	4	4	-0.66341273	52.867842	66.99677	39.842339
52	4	4	-0.66341273	53.239284	67.627735	42.288013
53	4	5	-0.98629526	51.452003	66.032386	41.56682
54	4	3	1.5785306	52.361841	64.926667	42.288375
55	4	4	-0.66341273	53.642321	64.809046	41.565509
56	4	4	-0.66341273	52.360973	65.279975	43.716011
57	4	1	0.53867169	51.469092	63.229766	42.117352
58	4	2	-0.26574309	50.238123	63.223438	42.7211
59	4	2	-0.26574309	51.266165	62.894177	40.803165
60	4	2	-0.26574309	52.19655	62.208157	42.672262
61	5	1	0.53867169	17.870152	67.79067	68.946853
62	5	2	-0.26574303	19.217209	67.53715	68.973894
63	5	2	-0.26574303	17.23411	66.590996	68.758316
64	5	2	-0.26574303	17.61856	68.551941	67.834315
65	5	3	1.5785306	17.273653	68.668284	70.551586
66	5	4	-0.66341273	18.169032	69.812546	70.786204
67	5	4	-0.66341273	15.8244	68.888636	70.415497
68	5	5	-0.98629526	17.530332	67.685838	71.794534
69	5	3	1.5785306	16.614629	68.102207	73.043036
70	5	4	-0.66341273	16.701595	69.564724	73.205037
71	5	4	-0.66341273	15.316272	67.447267	72.79829
72	5	1	0.53867169	17.368342	67.326608	74.634452
73	5	2	-0.26574309	17.381663	65.957255	74.57828
74	5	2	-0.26574309	18.660222	67.744288	74.827571
75	5	2	-0.26574309	16.661832	67.681947	75.756364
76	6	1	0.53867169	61.637197	41.895337	-0.036721553
77	6	2	-0.26574303	60.296111	41.665235	0.14327816
78	6	2	-0.26574303	62.32564	41.046448	0.78603558
79	6	2	-0.26574303	61.871271	43.156753	0.44327702
80	6	3	1.5785306	62.140827	41.736054	-1.9082607
81	6	4	-0.66341273	62.049732	43.073754	-2.5241834
82	6	4	-0.66341273	63.423562	41.032958	-2.0731346
83	6	5	-0.98629526	61.038952	40.936146	-2.7802357
84	6	3	1.5785306	61.170998	39.36131	-2.5418499
85	6	4	-0.66341273	62.161455	38.914428	-3.5345605
86	6	4	-0.66341273	61.397471	39.138203	-1.1096267
87	6	1	0.53867169	59.49934	38.510849	-2.9821435
88	6	2	-0.26574309	58.46025	38.972092	-2.2163948
89	6	2	-0.26574309	59.150696	38.690906	-4.2946473
90	6	2	-0.26574309	59.551263	37.155416	-2.7728176
91	7	1	0.53867169	69.071083	74.740849	21.564775
92	7	2	-0.26574303	68.455124	75.179205	22.710621
93	7	2	-0.26574303	70.332274	75.281882	21.541488
94	7	2	-0.26574303	68.407049	75.308428	20.51125
95	7	3	1.5785306	69.065032	72.800651	21.430879
96	7	4	-0.66341273	67.797651	72.395144	20.797849
97	7	4	-0.66341273	70.279317	72.31823	20.755394
98	7	5	-0.98629526	68.946028	72.05029	22.85332
99	7	3	1.5785306	70.325356	72.116628	23.655779
100	7	4	-0.66341273	71.183786	71.05947	23.098383
101	7	4	-0.66341273	70.75623	73.52149	23.627088
102	7	1	0.53867169	69.977298	71.656928	25.487339
103	7	2	-0.26574309	69.077778	72.520041	26.058095
104	7	2	-0.26574309	69.461894	70.388966	25.600383
105	7	2	-0.26574309	71.119599	71.7061	26.242256
106	8	1	0.53867169	56.599984	21.1514	33.874629
107	8	2	-0.26574303	55.969458	20.020485	33.42505
108	8	2	-0.26574303	57.607555	20.733819	34.706099
109	8	2	-0.26574303	55.701656	21.83707	34.651816
110	8	3	1.5785306	57.261915	22.230725	32.423437
111	8	4	-0.66341273	56.144161	22.497733	31.507959
112	8	4	-0.66341273	57.989745	23.363724	33.006618
113	8	5	-0.98629526	58.293109	21.360912	31.591208
114	8	3	1.5785306	59.161177	22.268975	30.593748
115	8	4	-0.66341273	60.261807	22.805588	31.408014
116	8	4	-0.66341273	59.567909	21.271164	29.590766
117	8	1	0.53867169	58.2271	23.693631	29.652867
118	8	2	-0.26574309	57.160039	23.229089	28.931317
119	8	2	-0.26574309	57.793484	24.705489	30.464144
120	8	2	-0.26574309	59.054861	24.282641	28.731651
121	9	1	0.53867169	51.17085	16.030374	67.363205
122	9	2	-0.26574303	51.024117	16.740754	66.199684
123	9	2	-0.26574303	49.95574	15.465157	67.653947
124	9	2	-0.26574303	51.448069	16.93494	68.357301
125	9	3	1.5785306	52.559214	14.708754	67.227173
126	9	4	-0.66341273	53.789816	15.395681	66.792808
127	9	4	-0.66341273	52.592764	13.969388	68.501444
128	9	5	-0.98629526	52.202544	13.693193	66.037512
129	9	3	1.5785306	52.953987	12.300146	66.249943
130	9	4	-0.66341273	54.353356	12.576603	66.620975
131	9	4	-0.66341273	52.104902	11.541115	67.183366
132	9	1	0.53867169	52.974329	11.326699	64.591417
133	9	2	-0.26574309	51.706157	11.042404	64.151196
134	9	2	-0.26574309	53.613338	12.017558	63.595104
135	9	2	-0.26574309	53.617339	10.123178	64.73207
136	10	1	0.53867169	48.126111	75.470247	35.84132
137	10	2	-0.26574303	49.101062	74.640088	36.333432
138	10	2	-0.26574303	47.462597	74.824996	34.830849
139	10	2	-0.26574303	48.778634	76.518507	35.248878
140	10	3	1.5785306	46.941476	76.123695	37.235208
141	10	4	-0.66341273	47.746449	76.874552	38.210845
142	10	4	-0.66341273	45.836549	76.905689	36.656406
143	10	5	-0.98629526	46.259971	75.020895	38.201337
144	10	3	1.5785306	45.644231	73.81712	37.353432
145	10	4	-0.66341273	44.674482	74.396415	36.415339
146	10	4	-0.66341273	46.800499	73.064265	36.859314
147	10	1	0.53867169	44.684515	72.650714	38.541391
148	10	2	-0.26574309	45.490532	72.176208	39.544227
149	10	2	-0.26574309	43.631911	73.287425	39.136646
150	10	2	-0.26574309	44.17666	71.56147	37.880592
151	11	1	0.53867169	57.202196	29.665518	58.511481
152	11	2	-0.26574303	57.47766	29.114747	59.733896
153	11	2	-0.26574303	56.657124	28.674362	57.732177
154	11	2	-0.26574303	58.398151	30.012345	57.937365
155	11	3	1.5785306	56.012163	31.174078	58.640079
156	11	4	-0.66341273	56.596913	32.15054	59.562297
157	11	4	-0.66341273	55.661268	31.567614	57.263122
158	11	5	-0.98629526	54.629421	30.682454	59.275479
159	11	3	1.5785306	53.807306	31.921349	59.901605
160	11	4	-0.66341273	53.764529	33.001261	58.90099
161	11	4	-0.66341273	52.510319	31.276784	60.177794
162	11	1	0.53867169	54.493198	32.55513	61.605997
163	11	2	-0.26574309	55.153475	31.566198	62.28756
164	11	2	-0.26574309	55.314479	33.645973	61.505599
165	11	2	-0.26574309	53.460016	32.949622	62.420239
166	12	1	0.53867169	56.017599	52.786841	68.813534
167	12	2	-0.26574303	55.298815	52.363124	67.724509
168	12	2	-0.26574303	56.181889	51.699734	69.635296
169	12	2	-0.26574303	55.229702	53.686056	69.478188
170	12	3	1.5785306	57.715845	53.530931	68.300939
171	12	4	-0.66341273	57.460985	54.669552	67.402501
172	12	4	-0.66341273	58.515186	53.71985	69.524088
173	12	5	-0.98629526	58.469734	52.442694	67.391953
174	12	3	1.5785306	60.041237	52.734189	67.343879
175	12	4	-0.66341273	60.248976	54.17542	67.134371
176	12	4	-0.66341273	60.586071	52.075491	68.542342
177	12	1	0.53867169	60.769658	51.831379	65.811357
178	12	2	-0.26574309	60.592217	50.474901	65.89273
179	12	2	-0.26574309	60.180287	52.241192	64.639597
180	12	2	-0.26574309	62.115097	52.05399	65.669918
181	13	1	0.53867169	22.0402	43.380237	68.123345
182	13	2	-0.26574303	23.311489	43.443394	68.623562
183	13	2	-0.26574303	21.755784	42.057543	67.902613
184	13	2	-0.26574303	22.035155	44.009352	66.905041
185	13	3	1.5785306	20.772576	44.178019	69.312687
186	13	4	-0.66341273	21.2515	45.542011	69.586539
187	13	4	-0.66341273	19.449927	43.953981	68.707237
188	13	5	-0.98629526	20.846694	43.390884	70.709162
189	13	3	1.5785306	19.480344	43.603344	71.527576
190	13	4	-0.66341273	19.073995	45.010977	71.417766
191	13	4	-0.66341273	18.598921	42.533374	71.034498
192	13	1	0.53867169	19.835521	43.239946	73.380775
193	13	2	-0.26574309	20.322583	41.969047	73.555093
194	13	2	-0.26574309	20.778797	44.091854	73.894258
195	13	2	-0.26574309	18.707292	43.352036	74.151897
196	14	1	0.53867169	32.515957	63.759785	64.643388
197	14	2	-0.26574303	33.277473	64.817386	65.064421
198	14	2	-0.26574303	31.207371	64.16398	64.726253
199	14	2	-0.26574303	32.714701	62.760682	65.559416
200	14	3	1.5785306	33.007491	63.219099	62.864895
201	14	4	-0.66341273	34.446862	62.923036	62.886376
202	14	4	-0.66341273	32.057226	62.197227	62.401876
203	14	5	-0.98629526	32.872381	64.485207	61.890368
204	14	3	1.5785306	32.814579	64.004674	60.353436
205	14	4	-0.66341273	33.722732	62.861319	60.158944
206	14	4	-0.66341273	31.376765	63.839407	60.075274
207	14	1	0.53867169	33.465319	65.451531	59.270897
208	14	2	-0.26574309	32.756491	66.605353	59.491773
209	14	2	-0.26574309	34.771459	65.746894	59.565544
210	14	2	-0.26574309	33.388913	65.166535	57.93468
211	15	1	0.53867169	52.836342	71.673512	22.302995
212	15	2	-0.26574303	52.444568	71.43496	23.595133
213	15	2	-0.26574303	52.19265	72.809854	21.886392
214	15	2	-0.26574303	52.36949	70.637922	21.536913
215	15	3	1.5785306	54.743881	71.840448	22.164085
216	15	4	-0.66341273	55.327616	70.582623	22.65805
217	15	4	-0.66341273	55.042496	72.303958	20.800853
218	15	5	-0.98629526	55.229492	72.954459	23.210719
219	15	3	1.5785306	56.667733	73.529005	22.788391
220	15	4	-0.66341273	57.537742	72.396955	22.429285
221	15	4	-0.66341273	56.408114	74.572225	21.78061
222	15	1	0.53867169	57.450242	74.386387	24.322882
223	15	2	-0.26574309	56.652284	75.389228	24.811373
224	15	2	-0.26574309	57.653742	73.500896	25.351052
225	15	2	-0.26574309	58.66663	74.941778	24.019299
226	16	1	0.53867169	53.413634	61.665034	24.155607
227	16	2	-0.26574303	54.309068	61.215134	25.091758
228	16	2	-0.26574303	53.813801	61.230063	22.918861
229	16	2	-0.26574303	53.555021	63.028212	24.12318
230	16	3	1.5785306	51.58659	61.166039	24.582553
231	16	4	-0.66341273	51.010709	62.279382	25.351741
232	16	4	-0.66341273	50.865073	60.808454	23.351629
233	16	5	-0.98629526	51.508069	59.949551	25.62741
234	16	3	1.5785306	51.777668	58.559742	24.88831
235	16	4	-0.66341273	50.497489	58.167968	24.276335
236	16	4	-0.66341273	52.948737	58.772879	24.02693
237	16	1	0.53867169	52.248864	57.237048	26.202857
238	16	2	-0.26574309	53.366842	57.609129	26.907294
239	16	2	-0.26574309	51.245303	57.036476	27.115183
240	16	2	-0.26574309	52.520518	56.024671	25.622196
241	17	1	0.53867169	67.716103	56.477523	40.636196
242	17	2	-0.26574303	67.16691	55.926294	39.50999
243	17	2	-0.26574303	68.330398	57.648787	40.286546
244	17	2	-0.26574303	68.734465	55.643334	41.026502
245	17	3	1.5785306	66.412382	56.633415	42.062736
246	17	4	-0.66341273	66.104503	55.254774	42.481132
247	17	4	-0.66341273	66.933231	57.524333	43.112731
248	17	5	-0.98629526	64.971952	57.147779	41.554666
249	17	3	1.5785306	64.919047	58.739886	41.507297
250	17	4	-0.66341273	64.632697	59.174342	42.885075
251	17	4	-0.66341273	66.139259	59.185667	40.826073
252	17	1	0.53867169	63.409243	59.276242	40.440526
253	17	2	-0.26574309	63.487778	58.821788	39.150262
254	17	2	-0.26574309	62.234187	58.79776	40.963149
255	17	2	-0.26574309	63.283896	60.640507	40.390229
256	18	1	0.53867169	53.561664	65.961118	59.775963
257	18	2	-0.26574303	52.546859	66.566281	60.471091
258	18	2	-0.26574303	53.000321	64.964151	59.018235
259	18	2	-0.26574303	54.380817	65.352693	60.690241
260	18	3	1.5785306	54.534235	67.207408	58.683004
261	18	4	-0.66341273	55.042281	68.271956	59.563227
262	18	4	-0.66341273	55.469022	66.420889	57.861986
263	18	5	-0.98629526	53.502903	67.937593	57.70225
264	18	3	1.5785306	54.267941	68.591676	56.454115
265	18	4	-0.66341273	55.4848	69.26012	56.95168
266	18	4	-0.66341273	54.389186	67.505684	55.464225
267	18	1	0.53867169	53.149924	69.956832	55.696092
268	18	2	-0.26574309	51.947212	69.458218	55.268335
269	18	2	-0.26574309	52.88425	70.945373	56.609602
270	18	2	-0.26574309	53.755102	70.553851	54.620199
271	19	1	0.53867169	75.353942	60.405111	47.418628
272	19	2	-0.26574303	75.614467	60.645242	48.740439
273	19	2	-0.26574303	75.255914	59.042516	47.278676
274	19	2	-0.26574303	76.452889	60.795441	46.700058
275	19	3	1.5785306	73.751035	61.27357	46.803117
276	19	4	-0.66341273	73.802552	62.674394	47.241049
277	19	4	-0.66341273	73.618469	60.933795	45.373974
278	19	5	-0.98629526	72.501001	60.610719	47.562218
279	19	3	1.5785306	71.138434	60.919714	46.766572
280	19	4	-0.66341273	71.171741	62.285767	46.227221
281	19	4	-0.66341273	71.023583	59.78672	45.826497
282	19	1	0.53867169	69.660048	60.794706	47.991104
283	19	2	-0.26574309	69.5715	59.536419	48.534651
284	19	2	-0.26574309	69.770279	61.681566	49.029808
285	19	2	-0.26574309	68.465428	61.040745	47.364531
286	20	1	0.53867169	28.989515	44.397435	34.239204
287	20	2	-0.26574303	28.529079	44.266887	32.955399
288	20	2	-0.26574303	27.923262	44.637241	35.066881
289	20	2	-0.26574303	29.732707	45.549078	34.282241
290	20	3	1.5785306	30.080731	42.883182	34.780102
291	20	4	-0.66341273	31.431937	43.101335	34.236789
292	20	4	-0.66341273	30.059791	42.716355	36.242349
293	20	5	-0.98629526	29.692714	41.482058	34.08169
294	20	3	1.5785306	28.365853	40.87182	34.737568
295	20	4	-0.66341273	28.811026	40.235329	35.983787
296	20	4	-0.66341273	27.389948	41.964893	34.787705
297	20	1	0.53867169	27.673655	39.504888	33.563607
298	20	2	-0.26574309	27.316313	40.019135	32.344279
299	20	2	-0.26574309	28.593299	38.518157	33.303239
300	20	2	-0.26574309	26.552188	38.908455	34.07336
301	21	1	0.53867169	31.091015	59.178309	66.542025
302	21	2	-0.26574303	30.594223	58.170404	67.324018
303	21	2	-0.26574303	31.962457	58.615136	65.646534
304	21	2	-0.26574303	31.837242	59.986901	67.357459
305	21	3	1.5785306	29.69733	60.164132	65.656843
306	21	4	-0.66341273	28.734617	60.590887	66.685324
307	21	4	-0.66341273	30.350959	61.184244	64.819632
308	21	5	-0.98629526	28.901072	59.170318	64.69326
309	21	3	1.5785306	28.082204	59.990959	63.59086
310	21	4	-0.66341273	27.514923	61.210093	64.197569
311	21	4	-0.66341273	29.018662	60.141845	62.464542
312	21	1	0.53867169	26.612329	58.920927	62.975893
313	21	2	-0.26574309	27.037938	57.781353	62.346449
314	21	2	-0.26574309	25.793705	58.545017	64.006991
315	21	2	-0.26574309	25.836465	59.615273	62.081242
316	22	1	0.53867169	61.676192	58.361616	0.018161068
317	22	2	-0.26574303	60.392723	58.041925	0.38163044
318	22	2	-0.26574303	62.501693	57.854042	0.98924436
319	22	2	-0.26574303	61.794143	59.722419	0.11244344
320	22	3	1.5785306	62.123475	57.718973	-1.7585385
321	22	4	-0.66341273	61.840892	58.79458	-2.7210635
322	22	4	-0.66341273	63.491521	57.176461	-1.7691334
323	22	5	-0.98629526	61.123405	56.560979	-2.262636
324	22	3	1.5785306	61.505127	55.151148	-1.6279306
325	22	4	-0.66341273	62.528405	54.599004	-2.529203
326	22	4	-0.66341273	61.822433	55.381408	-0.20705123
327	22	1	0.53867169	59.979658	53.990302	-1.6970532
328	22	2	-0.26574309	58.91839	54.516706	-1.0082985
329	22	2	-0.26574309	59.572635	53.755226	-2.9843685
330	22	2	-0.26574309	60.260043	52.77904	-1.122836
331	23	1	0.53867169	18.849207	26.544201	46.49714
332	23	2	-0.26574303	18.092283	27.562501	47.019196
333	23	2	-0.26574303	19.795675	26.232047	47.440438
334	23	2	-0.26574303	19.512608	27.056808	45.41893
335	23	3	1.5785306	17.773941	25.01498	46.032367
336	23	4	-0.66341273	16.651539	25.496447	45.206046
337	23	4	-0.66341273	18.6765	23.959727	45.539937
338	23	5	-0.98629526	17.105122	24.447525	47.381535
339	23	3	1.5785306	16.538322	22.959435	47.148046
340	23	4	-0.66341273	15.912162	22.874987	45.81882
341	23	4	-0.66341273	17.679052	22.081308	47.466846
342	23	1	0.53867169	15.167937	22.604916	48.450685
343	23	2	-0.26574309	15.643563	22.732935	49.731097
344	23	2	-0.26574309	14.104381	23.460057	48.322034
345	23	2	-0.26574309	14.674865	21.329679	48.330278
346	24	1	0.53867169	27.972035	57.141085	20.568883
347	24	2	-0.26574303	28.493578	57.498069	19.3541
348	24	2	-0.26574303	27.18281	56.043	20.361967
349	24	2	-0.26574303	27.111366	58.142872	20.93184
350	24	3	1.5785306	29.352164	56.889267	21.899929
351	24	4	-0.66341273	29.846907	58.221407	22.284405
352	24	4	-0.66341273	28.855913	56.04672	22.995574
353	24	5	-0.98629526	30.702519	56.238341	21.291046
354	24	3	1.5785306	30.604386	54.642725	21.292663
355	24	4	-0.66341273	31.020379	54.23779	22.649462
356	24	4	-0.66341273	29.281189	54.295578	20.758238
357	24	1	0.53867169	31.903698	53.936453	20.062225
358	24	2	-0.26574309	31.688762	54.394584	18.792998
359	24	2	-0.26574309	33.182783	54.275537	20.413482
360	24	2	-0.26574309	31.870036	52.565074	20.006118
361	25	1	0.53867169	55.997553	74.462075	64.712081
362	25	2	-0.26574303	56.612186	75.148644	65.728817
363	25	2	-0.26574303	56.945519	74.265757	63.738713
364	25	2	-0.26574303	55.036964	75.278015	64.17799
365	25	3	1.5785306	55.267801	72.791023	65.312343
366	25	4	-0.66341273	54.365692	73.052187	66.44485
367	25	4	-0.66341273	54.720173	72.105212	64.129839
368	25	5	-0.98629526	56.459851	71.909328	65.935817
369	25	3	1.5785306	56.119552	70.344944	65.812049
370	25	4	-0.66341273	54.720936	70.162058	66.240139
371	25	4	-0.66341273	56.518722	69.975653	64.443116
372	25	1	0.53867169	57.206287	69.327874	67.025166
373	25	2	-0.26574309	58.53241	69.396501	66.710696
374	25	2	-0.26574309	57.062249	69.750357	68.320546
375	25	2	-0.26574309	56.862321	68.000956	66.996846
376	26	1	0.53867169	12.151668	19.447333	43.33425
377	26	2	-0.26574303	11.408851	18.347372	43.681278
378	26	2	-0.26574303	13.220619	19.506773	44.190946
379	26	2	-0.26574303	11.368153	20.541334	43.603148
380	26	3	1.5785306	12.700391	19.401712	41.489072
381	26	4	-0.66341273	11.482227	19.196932	40.688128
382	26	4	-0.66341273	13.534894	20.592365	41.255193
383	26	5	-0.98629526	13.614316	18.108265	41.261206
384	26	3	1.5785306	14.423258	18.20968	39.880953
385	26	4	-0.66341273	13.511159	18.683718	38.828008
386	26	4	-0.66341273	15.622216	19.015405	40.17406
387	26	1	0.53867169	15.013531	16.446465	39.381144
388	26	2	-0.26574309	15.889223	15.918331	40.293994
389	26	2	-0.26574309	13.965539	15.565543	39.266105
390	26	2	-0.26574309	15.658267	16.462989	38.171668
391	27	1	0.53867169	43.88938	60.485177	38.331597
392	27	2	-0.26574303	43.727002	61.443472	39.301918
393	27	2	-0.26574303	43.170543	60.895061	37.245891
394	27	2	-0.26574303	43.252277	59.352484	38.757486
395	27	3	1.5785306	45.762329	60.130482	37.982528
396	27	4	-0.66341273	46.326847	59.551263	39.21118
397	27	4	-0.66341273	45.9093	59.316192	36.765063
398	27	5	-0.98629526	46.623011	61.483817	37.848966
399	27	3	1.5785306	46.630712	62.021999	36.344945
400	27	4	-0.66341273	47.684064	61.257095	35.658121
401	27	4	-0.66341273	45.237164	61.97248	35.880132
402	27	1	0.53867169	47.160816	63.871026	36.366105
403	27	2	-0.26574309	46.321216	64.622869	37.151883
404	27	2	-0.26574309	48.430815	64.035711	36.854088
405	27	2	-0.26574309	47.137079	64.422688	35.112345
406	28	1	0.53867169	11.598734	38.713779	56.571569
407	28	2	-0.26574303	11.794951	37.534957	55.898337
408	28	2	-0.26574303	11.719977	38.436949	57.908168
409	28	2	-0.26574303	10.30504	39.100451	56.337519
410	28	3	1.5785306	12.849191	40.05877	56.007915
411	28	4	-0.66341273	12.786155	40.123129	54.53897
412	28	4	-0.66341273	12.605258	41.265755	56.815186
413	28	5	-0.98629526	14.322721	39.577806	56.399684
414	28	3	1.5785306	15.45383	40.415268	55.603199
415	28	4	-0.66341273	14.956412	41.767826	55.30777
416	28	4	-0.66341273	16.591611	40.329537	56.533256
417	28	1	0.53867169	15.962559	39.521704	53.964748
418	28	2	-0.26574309	16.118988	38.173423	54.165897
419	28	2	-0.26574309	15.051467	39.677176	52.954621
420	28	2	-0.26574309	17.155371	39.993713	53.486667
421	29	1	0.53867169	41.814389	25.057795	15.327523
422	29	2	-0.26574303	41.126728	26.131516	15.834852
423	29	2	-0.26574303	42.654705	24.629958	16.324689
424	29	2	-0.26574303	42.60725	25.492158	14.300416
425	29	3	1.5785306	40.62058	23.64836	14.798928
426	29	4	-0.66341273	39.593773	24.207413	13.90745
427	29	4	-0.66341273	41.449451	22.499123	14.394933
428	29	5	-0.98629526	39.781411	23.208013	16.099297
429	29	3	1.5785306	39.170218	21.733887	15.894313
430	29	4	-0.66341273	38.806727	21.505246	14.485184
431	29	4	-0.66341273	40.184822	20.865569	16.511542
432	29	1	0.53867169	37.552085	21.601565	16.918197
433	29	2	-0.26574309	37.790909	21.758933	18.258206
434	29	2	-0.26574309	36.655784	22.573113	16.553608
435	29	2	-0.26574309	36.931567	20.393264	16.724938
436	30	1	0.53867169	56.438174	56.902227	47.114749
437	30	2	-0.26574303	55.522976	56.226497	47.881188
438	30	2	-0.26574303	56.377249	58.224297	47.472658
439	30	2	-0.26574303	56.012607	56.81077	45.814934
440	30	3	1.5785306	58.21156	56.190181	47.320666
441	30	4	-0.66341273	58.147492	54.74967	47.028317
442	30	4	-0.66341273	59.126978	57.032819	46.529555
443	30	5	-0.98629526	58.63111	56.279054	48.865714
444	30	3	1.5785306	60.222373	56.273665	49.02513
445	30	4	-0.66341273	60.783186	55.263562	48.111372
446	30	4	-0.66341273	60.62809	57.682567	48.883486
447	30	1	0.53867169	60.673199	55.714374	50.80833
448	30	2	-0.26574309	60.064416	56.482882	51.764326
449	30	2	-0.26574309	60.31733	54.40774	51.034489
450	30	2	-0.26574309	62.025719	55.798016	51.02705
451	31	1	0.53867169	37.738676	68.880038	5.9966177
452	31	2	-0.26574303	37.618744	68.898034	4.6307993
453	31	2	-0.26574303	37.246761	70.077405	6.457653
454	31	2	-0.26574303	39.073238	68.858128	6.303727
455	31	3	1.5785306	36.7993	67.403026	6.7886263
456	31	4	-0.66341273	37.296705	66.166825	6.1669809
457	31	4	-0.66341273	36.865001	67.608953	8.2458305
458	31	5	-0.98629526	35.256946	67.501931	6.3448936
459	31	3	1.5785306	34.331868	66.690321	7.3775405
460	31	4	-0.66341273	34.988971	65.417409	7.716676
461	31	4	-0.66341273	34.019504	67.684097	8.4195042
462	31	1	0.53867169	32.677956	66.269374	6.4940882
463	31	2	-0.26574309	32.071915	67.402568	6.0086352
464	31	2	-0.26574309	32.869437	65.428929	5.4283428
465	31	2	-0.26574309	31.786494	65.666342	7.3435032
466	32	1	0.53867169	26.738815	14.301537	75.944586
467	32	2	-0.26574303	27.481134	14.499587	74.807391
468	32	2	-0.26574303	25.723741	15.225757	75.939169
469	32	2	-0.26574303	27.541733	14.597689	77.017603
470	32	3	1.5785306	26.057203	12.506697	76.061954
471	32	4	-0.66341273	27.201672	11.5889	75.959239
472	32	4	-0.66341273	25.188575	12.455221	77.253027
473	32	5	-0.98629526	25.152245	12.216779	74.772573
474	32	3	1.5785306	24.175954	10.973871	75.030766
475	32	4	-0.66341273	24.896846	9.911924	75.751729
476	32	4	-0.66341273	22.977407	11.533405	75.682211
477	32	1	0.53867169	23.618798	10.247114	73.337798
478	32	2	-0.26574309	22.982001	11.180835	72.561283
479	32	2	-0.26574309	24.675777	9.7659624	72.609286
480	32	2	-0.26574309	22.740383	9.2056662	73.513298
481	33	1	0.53867169	12.779021	5.6020039	13.391762
482	33	2	-0.26574303	13.08885	4.2793441	13.581797
483	33	2	-0.26574303	11.925038	5.6712067	12.318856
484	33	2	-0.26574303	13.935499	6.2399083	13.022743
485	33	3	1.5785306	12.008059	6.3950878	14.965478
486	33	4	-0.66341273	12.945242	6.1791062	16.083841
487	33	4	-0.66341273	11.616459	7.7668804	14.610499
488	33	5	-0.98629526	10.692792	5.5708534	15.363157
489	33	3	1.5785306	9.7315592	6.4565688	16.293231
490	33	4	-0.66341273	10.56887	7.1256679	17.304615
491	33	4	-0.66341273	8.9081061	7.2518528	15.369595
492	33	1	0.53867169	8.557955	5.2702874	17.247285
493	33	2	-0.26574309	7.8137803	4.4878206	16.402141
494	33	2	-0.26574309	9.2662156	4.4261578	18.068061
495	33	2	-0.26574309	7.6827115	5.9598315	18.045828
496	34	1	0.53867169	15.199682	38.942664	7.009877
497	34	2	-0.26574303	16.212879	38.024683	7.0880312
498	34	2	-0.26574303	14.04148	38.317957	7.3972958
499	34	2	-0.26574303	15.053749	39.266014	5.6855506
500	34	3	1.5785306	15.567461	40.499892	8.073293
501	34	4	-0.66341273	16.856198	41.055331	7.6403707
502	34	4	-0.66341273	14.381191	41.372242	8.0256927
503	34	5	-0.98629526	15.722572	40.071573	9.6019971
504	34	3	1.5785306	16.526335	41.184282	10.445572
505	34	4	-0.66341273	15.999703	42.512026	10.078233
506	34	4	-0.66341273	16.251291	40.751462	11.824006
507	34	1	0.53867169	18.448335	41.127815	10.17428
508	34	2	-0.26574309	18.882376	39.881499	9.8077607
509	34	2	-0.26574309	18.882736	42.028499	9.2328012
510	34	2	-0.26574309	19.11253	41.465397	11.324655
511	35	1	0.53867169	27.975621	46.561074	52.649632
512	35	2	-0.26574303	28.50939	46.042562	51.500845
513	35	2	-0.26574303	26.819198	45.871968	52.903829
514	35	2	-0.26574303	27.569501	47.827902	52.327127
515	35	3	1.5785306	29.196339	46.647277	54.189177
516	35	4	-0.66341273	30.402181	47.42177	53.860984
517	35	4	-0.66341273	28.431675	47.165442	55.337019
518	35	5	-0.98629526	29.75101	45.273814	54.809666
519	35	3	1.5785306	30.009558	44.221625	53.654375
520	35	4	-0.66341273	28.662024	43.728833	53.344145
521	35	4	-0.66341273	30.802174	44.889607	52.617092
522	35	1	0.53867169	31.043811	42.759552	54.339972
523	35	2	-0.26574309	32.296832	43.15589	54.732957
524	35	2	-0.26574309	30.441222	42.178259	55.42345
525	35	2	-0.26574309	31.21053	41.791248	53.384132
526	36	1	0.53867169	17.760712	34.54694	61.095734
527	36	2	-0.26574303	18.071454	35.783124	61.59668
528	36	2	-0.26574303	16.516501	34.647684	60.526638
529	36	2	-0.26574303	17.657931	33.706961	62.17452
530	36	3	1.5785306	19.091917	33.928373	59.848785
531	36	4	-0.66341273	20.390406	34.018722	60.530944
532	36	4	-0.66341273	18.601812	32.656896	59.302454
533	36	5	-0.98629526	19.168394	34.966197	58.640242
534	36	3	1.5785306	20.439587	34.670355	57.689853
535	36	4	-0.66341273	20.521109	33.23499	57.394285
536	36	4	-0.66341273	20.117121	35.549157	56.550193
537	36	1	0.53867169	22.122617	35.289581	58.422027
538	36	2	-0.26574309	21.969869	36.440029	59.156456
539	36	2	-0.26574309	22.757034	34.368942	59.211278
540	36	2	-0.26574309	23.003287	35.565174	57.40953
541	37	1	0.53867169	24.979913	62.788639	5.8819085
542	37	2	-0.26574303	24.044604	63.266163	6.7659914
543	37	2	-0.26574303	26.155667	63.447328	6.1054629
544	37	2	-0.26574303	24.573152	63.166842	4.6321917
545	37	3	1.5785306	25.146983	60.855217	5.9943372
546	37	4	-0.66341273	23.857245	60.273523	5.5915487
547	37	4	-0.66341273	26.331704	60.376778	5.2781546
548	37	5	-0.98629526	25.296443	60.249362	7.4748975
549	37	3	1.5785306	26.498156	60.921955	8.2985598
550	37	4	-0.66341273	26.047499	62.288132	8.5862857
551	37	4	-0.66341273	26.548531	60.014014	9.4537151
552	37	1	0.53867169	28.253396	60.915432	7.4520665
553	37	2	-0.26574309	28.580859	59.692588	6.9301724
554	37	2	-0.26574309	28.382483	61.849971	6.463874