Title

13800 atoms
13500 bonds
24600 angles
39000 dihedrals
4500 impropers

11 atom types
11 bond types
8 angle types
22 dihedral types
4 improper types
-12.92055011 67.07944989 xlo xhi
-11.75758362 68.24241638 ylo yhi
-10.90491891 69.09508109 zlo zhi
0.0 0.0 0.0 xy xz yz

Masses

1	12.01078
2	18.998403
3	32.0655
4	15.99943
5	14.00672
6	12.01078
7	1.007947
8	1.007947
9	1.007947
10	1.007947
11	1.007947


Pair Coeffs

1	0.10884061	3.3795318
2	0.061	3.1181455
3	0.25	3.5635949
4	0.2102061	3.0398122
5	0.16769152	3.206876
6	0.086879315	3.4806469
7	0.015779483	2.6445434
8	0.016409246	2.5832257
9	0.013106998	2.4536265
10	0.0157	1.9599772
11	0.014797445	2.4419228

Bond Coeffs

1 harmonic	287.91882093395	1.359315559786
2 harmonic	156.8711507117	1.812798632943
3 harmonic	608.035974961	1.469758533467
4 harmonic	239.8447873633	1.642019753341
5 harmonic	215.30139056395	1.533627603844
6 harmonic	357.8191474159	1.094206460752
7 harmonic	225.97114073395	1.477375101044
8 harmonic	329.26307138675	1.389502949007
9 harmonic	452.0241811971	1.373209032276
10 harmonic	386.4399368291	1.08603610657
11 harmonic	505.163639116	1.309372378949


Angle Coeffs

1 harmonic	119.7125597221	107.2128707706
2 harmonic	66.75631831595	109.9380527584
3 harmonic	124.0884341307	113.2116558678
4 harmonic	94.25109102650001	120.4494266916
5 harmonic	79.47831834420001	121.7705343867
6 harmonic	91.51855890415	108.1730591511
7 harmonic	50.901762366	124.801611398
8 harmonic	36.776637850755	108.3543135269


Dihedral Coeffs

1 fourier 1	-1.572239594429	1	180
2 fourier 1	0.316444679891	2	0
3 fourier 1	0.1426731536269	3	0
4 fourier 1	0.2057583936885	3	0
5 fourier 1	0.3549667638131	3	0
6 fourier 1	0.2399307824079	2	180
7 fourier 1	0.9156101580834	1	180
8 fourier 1	0.0985377828486	3	0
9 fourier 1	0.143904881748	3	0
10 fourier 1	0.3215160932459	2	0
11 fourier 1	0.2510071310501	3	0
12 fourier 1	-0.1108037280545	4	180
13 fourier 1	-0.2219080374426	3	180
14 fourier 1	0.8434650381516	2	0
15 fourier 1	-0.1523281600983	1	0
16 fourier 1	1.469128273675	2	180
17 fourier 1	4.626306460904	2	180
18 fourier 1	1.012490953194	2	180
19 fourier 1	1.409955177277	2	180
20 fourier 1	1.079567853188	2	180
21 fourier 1	1.601769915929	1	0
22 fourier 1	0.2279946533057	3	0


Improper Coeffs

1 5.335286357863333	-1	2
2 1.743596855104667	-1	2
3 3.374156584723333	-1	2
4 0.4187541668506667	-1	2


Atoms

1	1	1	0.53867169	54.886532	77.16116	9.6247697
2	1	2	-0.26574303	54.84045	77.989826	10.716273
3	1	2	-0.26574303	53.735733	77.340527	8.902784
4	1	2	-0.26574303	54.814415	75.877905	10.105922
5	1	3	1.5785306	56.521406	77.411437	8.6046183
6	1	4	-0.66341273	57.584472	76.679888	9.3219233
7	1	4	-0.66341273	56.321998	77.011185	7.2043878
8	1	5	-0.98629526	57.084908	78.922672	8.659389
9	1	3	1.5785306	56.290994	79.856696	7.6316309
10	1	4	-0.66341273	56.896429	79.641223	6.3102144
11	1	4	-0.66341273	54.86093	79.603539	7.8439784
12	1	1	0.53867169	56.607156	81.701298	8.0916172
13	1	2	-0.26574309	56.146154	82.004023	9.3467611
14	1	2	-0.26574309	57.939472	82.024603	8.0605179
15	1	2	-0.26574309	55.97156	82.557287	7.2225451
16	2	1	0.53867169	22.477779	68.888307	69.483719
17	2	2	-0.26574303	21.564963	69.652219	68.804541
18	2	2	-0.26574303	22.4878	69.345589	70.777235
19	2	2	-0.26574303	23.715827	69.134293	68.953919
20	2	3	1.5785306	22.030344	67.021418	69.41936
21	2	4	-0.66341273	21.931059	66.609058	68.018184
22	2	4	-0.66341273	22.932978	66.306825	70.334487
23	2	5	-0.98629526	20.5551	66.831927	69.991646
24	2	3	1.5785306	20.244024	65.272913	70.251112
25	2	4	-0.66341273	20.74892	65.002275	71.609025
26	2	4	-0.66341273	18.777277	65.257173	70.133772
27	2	1	0.53867169	20.952053	63.969574	68.978591
28	2	2	-0.26574309	20.471671	64.157887	67.711406
29	2	2	-0.26574309	22.318962	63.913245	68.917313
30	2	2	-0.26574309	20.563998	62.707915	69.346027
31	3	1	0.53867169	53.609462	27.615585	46.691527
32	3	2	-0.26574303	54.312449	26.461568	46.4821
33	3	2	-0.26574303	52.49774	27.566676	45.896931
34	3	2	-0.26574303	54.37675	28.647895	46.208248
35	3	3	1.5785306	53.216534	27.891226	48.563805
36	3	4	-0.66341273	54.487939	27.798605	49.29781
37	3	4	-0.66341273	52.50566	29.171288	48.727965
38	3	5	-0.98629526	52.373219	26.669059	49.203224
39	3	3	1.5785306	50.802655	26.969473	49.168501
40	3	4	-0.66341273	50.582771	27.851048	50.32608
41	3	4	-0.66341273	50.482321	27.408414	47.800822
42	3	1	0.53867169	49.846563	25.337875	49.517746
43	3	2	-0.26574309	50.104599	24.377267	48.57636
44	3	2	-0.26574309	50.195513	24.808011	50.732851
45	3	2	-0.26574309	48.49246	25.54647	49.547582
46	4	1	0.53867169	26.687927	21.775708	58.588958
47	4	2	-0.26574303	26.589458	22.988372	57.956786
48	4	2	-0.26574303	26.516497	20.801799	57.641487
49	4	2	-0.26574303	25.618491	21.687379	59.439645
50	4	3	1.5785306	28.353484	21.634068	59.572253
51	4	4	-0.66341273	28.175116	22.318659	60.866251
52	4	4	-0.66341273	28.80877	20.235438	59.671202
53	4	5	-0.98629526	29.521873	22.529116	58.927011
54	4	3	1.5785306	30.218704	21.766081	57.716498
55	4	4	-0.66341273	31.262541	20.936773	58.338666
56	4	4	-0.66341273	29.152279	21.150227	56.918049
57	4	1	0.53867169	31.099591	23.053126	56.599779
58	4	2	-0.26574309	30.21415	23.966954	56.09602
59	4	2	-0.26574309	32.071042	23.746529	57.272258
60	4	2	-0.26574309	31.718187	22.448933	55.540805
61	5	1	0.53867169	63.032842	55.502477	52.804017
62	5	2	-0.26574303	63.81362	56.450181	52.197847
63	5	2	-0.26574303	63.155861	54.353666	52.061782
64	5	2	-0.26574303	61.732821	55.913744	52.674174
65	5	3	1.5785306	63.515997	55.217285	54.646468
66	5	4	-0.66341273	63.499174	56.524124	55.319109
67	5	4	-0.66341273	62.650719	54.135656	55.148792
68	5	5	-0.98629526	65.043235	54.72259	54.701557
69	5	3	1.5785306	65.338025	53.965287	56.085835
70	5	4	-0.66341273	64.751697	54.767437	57.172275
71	5	4	-0.66341273	64.882426	52.58112	55.863013
72	5	1	0.53867169	67.244906	53.903923	56.363406
73	5	2	-0.26574309	67.907944	53.425775	55.262713
74	5	2	-0.26574309	67.764573	55.141864	56.632452
75	5	2	-0.26574309	67.587237	53.098364	57.415171
76	6	1	0.53867169	7.6661885	24.167762	27.854259
77	6	2	-0.26574303	6.5828353	23.444991	28.28079
78	6	2	-0.26574303	8.7109715	23.860276	28.686361
79	6	2	-0.26574303	7.3654908	25.492709	28.040645
80	6	3	1.5785306	8.0889648	23.807554	26.016963
81	6	4	-0.66341273	6.8941724	24.156229	25.230021
82	6	4	-0.66341273	9.3627197	24.484391	25.724998
83	6	5	-0.98629526	8.3079249	22.225616	25.846994
84	6	3	1.5785306	9.0330243	21.908934	24.449315
85	6	4	-0.66341273	8.3945835	22.696202	23.382251
86	6	4	-0.66341273	10.470617	22.095907	24.704251
87	6	1	0.53867169	8.7767059	20.049582	24.039705
88	6	2	-0.26574309	9.3030679	19.248779	25.023477
89	6	2	-0.26574309	7.4499828	19.727954	23.919766
90	6	2	-0.26574309	9.390384	19.707311	22.862144
91	7	1	0.53867169	55.452065	33.001635	56.497183
92	7	2	-0.26574303	55.519772	34.345047	56.758556
93	7	2	-0.26574303	55.911818	32.352896	57.615147
94	7	2	-0.26574303	56.336408	32.740364	55.48059
95	7	3	1.5785306	53.665314	32.448857	56.0393
96	7	4	-0.66341273	53.1987	33.307092	54.94462
97	7	4	-0.66341273	53.682604	30.986743	55.869403
98	7	5	-0.98629526	52.706361	32.709997	57.292256
99	7	3	1.5785306	51.163416	32.76125	56.826029
100	7	4	-0.66341273	50.913463	31.648061	55.895238
101	7	4	-0.66341273	50.493169	32.638724	58.132577
102	7	1	0.53867169	50.644302	34.464741	56.051307
103	7	2	-0.26574309	51.409669	35.492685	56.53851
104	7	2	-0.26574309	50.710506	34.49482	54.683857
105	7	2	-0.26574309	49.340892	34.757667	56.358705
106	8	1	0.53867169	18.63802	61.089082	73.158264
107	8	2	-0.26574303	17.58623	60.624886	73.904319
108	8	2	-0.26574303	19.333111	61.990123	73.925467
109	8	2	-0.26574303	18.092724	61.795712	72.116966
110	8	3	1.5785306	19.761473	59.655628	72.532854
111	8	4	-0.66341273	18.884854	58.677344	71.869612
112	8	4	-0.66341273	20.884554	60.268898	71.805959
113	8	5	-0.98629526	20.36732	58.876882	73.793936
114	8	3	1.5785306	21.64191	57.997169	73.359814
115	8	4	-0.66341273	21.339178	57.331362	72.081933
116	8	4	-0.66341273	22.789946	58.918085	73.434453
117	8	1	0.53867169	21.905007	56.618414	74.671712
118	8	2	-0.26574309	22.14072	57.139206	75.916953
119	8	2	-0.26574309	20.802395	55.805998	74.770579
120	8	2	-0.26574309	22.972302	55.8217	74.350395
121	9	1	0.53867169	55.668435	13.367611	11.00458
122	9	2	-0.26574303	54.749246	14.107825	11.705437
123	9	2	-0.26574303	56.523786	14.237144	10.379813
124	9	2	-0.26574303	54.991379	12.725315	10.001929
125	9	3	1.5785306	56.568513	12.099004	12.156695
126	9	4	-0.66341273	55.637898	10.988884	12.409161
127	9	4	-0.66341273	57.878847	11.725868	11.588039
128	9	5	-0.98629526	56.760368	12.670631	13.656604
129	9	3	1.5785306	58.105764	13.520226	13.783804
130	9	4	-0.66341273	59.153433	12.504177	13.97341
131	9	4	-0.66341273	58.100133	14.428207	12.629042
132	9	1	0.53867169	57.989187	14.575372	15.386176
133	9	2	-0.26574309	56.881819	15.386372	15.365005
134	9	2	-0.26574309	57.857327	13.782297	16.497824
135	9	2	-0.26574309	59.081879	15.373311	15.573261
136	10	1	0.53867169	34.080377	49.749031	62.149878
137	10	2	-0.26574303	35.078573	50.522451	62.681031
138	10	2	-0.26574303	34.37294	48.451486	62.469854
139	10	2	-0.26574303	34.144742	49.860654	60.787811
140	10	3	1.5785306	32.35842	50.267444	62.814479
141	10	4	-0.66341273	32.153032	51.689281	62.48858
142	10	4	-0.66341273	31.385951	49.276295	62.323823
143	10	5	-0.98629526	32.418404	50.207968	64.417062
144	10	3	1.5785306	30.971897	49.936705	65.017734
145	10	4	-0.66341273	30.007155	50.857959	64.390516
146	10	4	-0.66341273	30.767465	48.48598	64.907007
147	10	1	0.53867169	31.004977	50.345659	66.890883
148	10	2	-0.26574309	31.989524	49.661379	67.559209
149	10	2	-0.26574309	31.209288	51.676369	67.120385
150	10	2	-0.26574309	29.811926	50.018487	67.47829
151	11	1	0.53867169	25.712726	14.933119	40.552511
152	11	2	-0.26574303	26.632192	15.627201	39.808648
153	11	2	-0.26574303	24.503701	15.549458	40.36437
154	11	2	-0.26574303	26.057308	15.136372	41.863484
155	11	3	1.5785306	25.667415	13.062704	40.088568
156	11	4	-0.66341273	27.055359	12.580032	40.128331
157	11	4	-0.66341273	24.652276	12.422121	40.941157
158	11	5	-0.98629526	25.217862	12.948053	38.55386
159	11	3	1.5785306	24.605892	11.492804	38.260753
160	11	4	-0.66341273	25.436847	10.480723	38.934023
161	11	4	-0.66341273	23.183041	11.593831	38.624229
162	11	1	0.53867169	24.702194	11.171204	36.367927
163	11	2	-0.26574309	24.024708	12.130729	35.658395
164	11	2	-0.26574309	25.997059	11.193604	35.917544
165	11	2	-0.26574309	24.168701	9.9537754	36.031284
166	12	1	0.53867169	56.739912	46.658082	27.086875
167	12	2	-0.26574303	56.846848	45.294242	27.189384
168	12	2	-0.26574303	57.107739	47.19223	28.292012
169	12	2	-0.26574303	55.404706	46.922369	26.95503
170	12	3	1.5785306	57.750125	47.339864	25.571458
171	12	4	-0.66341273	56.928821	47.166238	24.36223
172	12	4	-0.66341273	58.230677	48.709431	25.811365
173	12	5	-0.98629526	59.014931	46.417136	25.1929
174	12	3	1.5785306	60.237193	46.677175	26.187572
175	12	4	-0.66341273	60.997076	47.781792	25.585024
176	12	4	-0.66341273	59.694304	46.831808	27.542195
177	12	1	0.53867169	61.359291	45.121202	26.188293
178	12	2	-0.26574309	60.704532	44.02873	26.692641
179	12	2	-0.26574309	61.781735	44.798994	24.925957
180	12	2	-0.26574309	62.47375	45.310798	26.957259
181	13	1	0.53867169	13.734438	54.555349	57.70473
182	13	2	-0.26574303	14.363592	55.627441	57.124138
183	13	2	-0.26574303	13.953661	53.466592	56.909828
184	13	2	-0.26574303	12.385747	54.805622	57.704105
185	13	3	1.5785306	14.386352	54.260936	59.477649
186	13	4	-0.66341273	14.353383	55.563874	60.159011
187	13	4	-0.66341273	13.65499	53.106918	60.033154
188	13	5	-0.98629526	15.945057	53.900213	59.389715
189	13	3	1.5785306	16.41555	53.164959	60.741549
190	13	4	-0.66341273	15.769669	53.829427	61.883392
191	13	4	-0.66341273	16.175005	51.728401	60.509992
192	13	1	0.53867169	18.30606	53.418913	60.93256
193	13	2	-0.26574309	18.992773	52.925224	59.85496
194	13	2	-0.26574309	18.617772	54.749284	61.025681
195	13	2	-0.26574309	18.790743	52.799802	62.054429
196	14	1	0.53867169	51.205635	37.254989	65.60513
197	14	2	-0.26574303	50.074649	37.863817	65.124822
198	14	2	-0.26574303	51.421537	37.760639	66.862726
199	14	2	-0.26574303	52.255864	37.647629	64.817076
200	14	3	1.5785306	51.005473	35.348272	65.646954
201	14	4	-0.66341273	50.606556	34.903998	64.302435
202	14	4	-0.66341273	52.221785	34.789658	66.255817
203	14	5	-0.98629526	49.754715	35.019066	66.585412
204	14	3	1.5785306	49.872365	33.540263	67.187648
205	14	4	-0.66341273	50.28501	32.635987	66.099248
206	14	4	-0.66341273	50.727897	33.702316	68.373227
207	14	1	0.53867169	48.116245	33.029034	67.792764
208	14	2	-0.26574309	47.611837	33.939526	68.688674
209	14	2	-0.26574309	47.216768	32.967434	66.760006
210	14	2	-0.26574309	48.111839	31.812084	68.41393
211	15	1	0.53867169	65.181112	11.741303	4.8434094
212	15	2	-0.26574303	63.951569	11.149778	4.6991804
213	15	2	-0.26574303	65.546575	12.231789	3.6165288
214	15	2	-0.26574303	66.069875	10.748625	5.1692623
215	15	3	1.5785306	65.157208	13.11813	6.1836016
216	15	4	-0.66341273	64.632092	12.513971	7.4208289
217	15	4	-0.66341273	66.49085	13.747643	6.1974478
218	15	5	-0.98629526	64.072547	14.223924	5.7727635
219	15	3	1.5785306	64.364767	15.607418	6.5227461
220	15	4	-0.66341273	64.666553	15.316732	7.9355395
221	15	4	-0.66341273	65.374894	16.302042	5.7061213
222	15	1	0.53867169	62.76001	16.673856	6.4920235
223	15	2	-0.26574309	62.39593	17.025425	5.2183717
224	15	2	-0.26574309	61.695056	16.010526	7.0455068
225	15	2	-0.26574309	62.916212	17.835803	7.2049361
226	16	1	0.53867169	18.899086	21.273487	42.069116
227	16	2	-0.26574303	19.178147	20.062001	42.642107
228	16	2	-0.26574303	20.09964	21.869626	41.776023
229	16	2	-0.26574303	18.289003	22.059278	43.014531
230	16	3	1.5785306	17.802294	21.101754	40.501213
231	16	4	-0.66341273	16.54112	20.467262	40.90095
232	16	4	-0.66341273	17.796972	22.420542	39.850976
233	16	5	-0.98629526	18.513364	20.114567	39.473917
234	16	3	1.5785306	17.483841	19.651264	38.319283
235	16	4	-0.66341273	16.596105	20.769804	37.959311
236	16	4	-0.66341273	18.419775	19.21535	37.267597
237	16	1	0.53867169	16.422708	18.120894	38.834772
238	16	2	-0.26574309	16.021003	17.425581	37.72687
239	16	2	-0.26574309	17.131341	17.248906	39.616489
240	16	2	-0.26574309	15.272781	18.454766	39.495583
241	17	1	0.53867169	14.08561	32.98043	50.087996
242	17	2	-0.26574303	15.413477	32.967782	49.745574
243	17	2	-0.26574303	13.457408	31.942589	49.448457
244	17	2	-0.26574303	13.547597	34.120376	49.549608
245	17	3	1.5785306	13.836257	32.952571	52.01283
246	17	4	-0.66341273	13.906006	34.34031	52.495503
247	17	4	-0.66341273	12.611834	32.218318	52.378249
248	17	5	-0.98629526	15.06424	32.29152	52.825646
249	17	3	1.5785306	15.032965	30.698922	52.719965
250	17	4	-0.66341273	14.140383	30.266032	53.812256
251	17	4	-0.66341273	14.699996	30.353792	51.336207
252	17	1	0.53867169	16.786275	30.020936	53.114505
253	17	2	-0.26574309	17.728801	30.495338	52.24184
254	17	2	-0.26574309	17.179738	30.38192	54.379663
255	17	2	-0.26574309	16.814948	28.652408	53.060708
256	18	1	0.53867169	52.373581	20.203443	40.836902
257	18	2	-0.26574303	51.524467	21.224365	40.491462
258	18	2	-0.26574303	51.905136	19.682724	42.012825
259	18	2	-0.26574303	53.599272	20.757473	41.099463
260	18	3	1.5785306	52.471681	18.860624	39.463215
261	18	4	-0.66341273	52.78686	19.555634	38.205719
262	18	4	-0.66341273	53.341041	17.783366	39.962025
263	18	5	-0.98629526	51.002879	18.23624	39.260726
264	18	3	1.5785306	51.100187	16.861935	38.427818
265	18	4	-0.66341273	52.088828	17.003279	37.347856
266	18	4	-0.66341273	51.274991	15.810528	39.440823
267	18	1	0.53867169	49.389038	16.5481	37.60258
268	18	2	-0.26574309	48.390112	16.400259	38.535018
269	18	2	-0.26574309	49.015679	17.582312	36.787255
270	18	2	-0.26574309	49.38159	15.405947	36.84449
271	19	1	0.53867169	63.773651	27.033262	49.147496
272	19	2	-0.26574303	63.500257	25.821619	48.571539
273	19	2	-0.26574303	63.497939	27.979765	48.210092
274	19	2	-0.26574303	65.121784	27.074759	49.381289
275	19	3	1.5785306	62.776895	27.304997	50.759082
276	19	4	-0.66341273	63.292503	26.334507	51.741605
277	19	4	-0.66341273	62.806392	28.744798	51.06257
278	19	5	-0.98629526	61.237411	26.983957	50.477133
279	19	3	1.5785306	60.478768	26.686549	51.85442
280	19	4	-0.66341273	60.685825	25.250604	52.105255
281	19	4	-0.66341273	60.909662	27.67837	52.854657
282	19	1	0.53867169	58.600712	26.954429	51.584735
283	19	2	-0.26574309	58.300724	28.279583	51.394
284	19	2	-0.26574309	58.125324	26.260061	50.502977
285	19	2	-0.26574309	57.8862	26.535041	52.67405
286	20	1	0.53867169	10.654522	58.442655	17.819115
287	20	2	-0.26574303	9.9133462	59.561033	18.098166
288	20	2	-0.26574303	9.7810948	57.387795	17.756052
289	20	2	-0.26574303	11.452831	58.215761	18.907734
290	20	3	1.5785306	11.698898	58.617864	16.193491
291	20	4	-0.66341273	13.102505	58.850036	16.57079
292	20	4	-0.66341273	11.446007	57.466655	15.310956
293	20	5	-0.98629526	11.352397	59.964418	15.384996
294	20	3	1.5785306	10.02286	59.785976	14.518745
295	20	4	-0.66341273	10.449899	59.173365	13.248311
296	20	4	-0.66341273	9.045127	59.074388	15.360981
297	20	1	0.53867169	9.2889267	61.515226	14.119259
298	20	2	-0.26574309	8.9091867	62.173615	15.25923
299	20	2	-0.26574309	10.184001	62.312112	13.455162
300	20	2	-0.26574309	8.1728077	61.401076	13.331345
301	21	1	0.53867169	71.305933	58.712788	13.9771
302	21	2	-0.26574303	72.191267	57.869778	14.601822
303	21	2	-0.26574303	71.317854	58.407316	12.641568
304	21	2	-0.26574303	71.798606	59.984336	14.115834
305	21	3	1.5785306	69.546862	58.562212	14.733169
306	21	4	-0.66341273	69.681268	58.744349	16.190504
307	21	4	-0.66341273	68.647513	59.449539	13.977623
308	21	5	-0.98629526	69.037642	57.050591	14.574996
309	21	3	1.5785306	67.441268	56.97751	14.678456
310	21	4	-0.66341273	67.024851	57.802253	15.828674
311	21	4	-0.66341273	66.926112	57.294765	13.336977
312	21	1	0.53867169	66.942606	55.163603	15.083038
313	21	2	-0.26574309	67.319694	54.286933	14.099787
314	21	2	-0.26574309	67.520127	54.734373	16.251937
315	21	2	-0.26574309	65.586734	55.042586	15.247945
316	22	1	0.53867169	38.195872	19.300967	68.59592
317	22	2	-0.26574303	38.370619	18.449246	67.529359
318	22	2	-0.26574303	37.813792	20.506847	68.071232
319	22	2	-0.26574303	39.424858	19.473355	69.175987
320	22	3	1.5785306	36.896317	18.604804	69.830747
321	22	4	-0.66341273	37.308035	17.227039	70.149837
322	22	4	-0.66341273	36.702349	19.606733	70.888143
323	22	5	-0.98629526	35.527096	18.388791	69.019389
324	22	3	1.5785306	34.275787	18.434125	70.02768
325	22	4	-0.66341273	34.605894	17.611344	71.203833
326	22	4	-0.66341273	33.932517	19.856645	70.163193
327	22	1	0.53867169	32.797816	17.559086	69.167285
328	22	2	-0.26574309	32.536244	18.085065	67.92881
329	22	2	-0.26574309	33.058376	16.222559	68.99437
330	22	2	-0.26574309	31.650393	17.641493	69.912534
331	23	1	0.53867169	63.43545	32.023582	70.385456
332	23	2	-0.26574303	64.132009	32.675004	69.404082
333	23	2	-0.26574303	62.681518	31.040573	69.797573
334	23	2	-0.26574303	62.526383	32.920697	70.880637
335	23	3	1.5785306	64.603801	31.38572	71.808658
336	23	4	-0.66341273	64.893351	32.532279	72.683301
337	23	4	-0.66341273	64.029503	30.217991	72.491636
338	23	5	-0.98629526	66.119494	30.984101	71.340046
339	23	3	1.5785306	66.290455	29.541466	70.434489
340	23	4	-0.66341273	67.286277	27.484405	71.399693
341	23	4	-0.66341273	64.950342	29.567611	69.785948
342	23	1	0.53867169	67.299767	30.510566	68.911452
343	23	2	-0.26574309	66.818194	31.779659	68.743057
344	23	2	-0.26574309	68.648996	30.694849	69.108906
345	23	2	-0.26574309	67.128329	29.918957	67.683449
346	24	1	0.53867169	64.058318	38.265426	62.065191
347	24	2	-0.26574303	63.944125	38.269584	60.700045
348	24	2	-0.26574303	64.832082	37.191458	62.429204
349	24	2	-0.26574303	62.807717	37.97689	62.534199
350	24	3	1.5785306	64.682064	39.980056	62.732706
351	24	4	-0.66341273	63.494825	40.852757	62.80549
352	24	4	-0.66341273	65.452375	39.785967	63.968902
353	24	5	-0.98629526	65.593758	40.760837	61.66265
354	24	3	1.5785306	67.070465	40.157461	61.616879
355	24	4	-0.66341273	67.813225	40.753856	62.738194
356	24	4	-0.66341273	66.923504	38.69663	61.554317
357	24	1	0.53867169	67.919211	40.708528	59.979959
358	24	2	-0.26574309	69.200373	40.22532	59.891315
359	24	2	-0.26574309	67.244434	40.233455	58.883786
360	24	2	-0.26574309	67.989054	42.071686	59.862065
361	25	1	0.53867169	40.055513	70.126767	11.375754
362	25	2	-0.26574303	41.366529	70.503802	11.507105
363	25	2	-0.26574303	39.646976	70.480909	10.116264
364	25	2	-0.26574303	39.341035	70.885448	12.264364
365	25	3	1.5785306	39.835665	68.241382	11.693711
366	25	4	-0.66341273	40.47946	67.937727	12.982717
367	25	4	-0.66341273	38.41774	67.908869	11.471483
368	25	5	-0.98629526	40.709991	67.440186	10.612792
369	25	3	1.5785306	40.190234	65.931792	10.456017
370	25	4	-0.66341273	39.890034	65.390935	11.792058
371	25	4	-0.66341273	39.095376	65.996075	9.4717842
372	25	1	0.53867169	41.587229	64.856315	9.6983057
373	25	2	-0.26574309	41.951451	65.305519	8.4577531
374	25	2	-0.26574309	42.709498	64.856672	10.485278
375	25	2	-0.26574309	41.174436	63.555183	9.5630115
376	26	1	0.53867169	39.50865	4.5434877	67.418952
377	26	2	-0.26574303	40.854731	4.6704832	67.652826
378	26	2	-0.26574303	39.114676	3.3439994	67.954121
379	26	2	-0.26574303	39.35926	4.4468817	66.055245
380	26	3	1.5785306	38.506508	6.0276866	68.129077
381	26	4	-0.66341273	39.10013	7.2425193	67.543354
382	26	4	-0.66341273	37.083321	5.7309103	67.901859
383	26	5	-0.98629526	38.771975	6.1290908	69.707747
384	26	3	1.5785306	37.597809	6.9636518	70.416856
385	26	4	-0.66341273	37.29167	8.1503153	69.601521
386	26	4	-0.66341273	36.532824	5.991298	70.721488
387	26	1	0.53867169	38.240497	7.6029497	72.115827
388	26	2	-0.26574309	38.658531	6.577639	72.926235
389	26	2	-0.26574309	39.294491	8.4696281	71.982236
390	26	2	-0.26574309	37.253842	8.2647175	72.807531
391	27	1	0.53867169	19.406239	38.884826	75.421033
392	27	2	-0.26574303	18.372504	38.422248	76.192317
393	27	2	-0.26574303	19.637414	40.181813	75.808024
394	27	2	-0.26574303	18.978791	38.919752	74.118795
395	27	3	1.5785306	20.987139	37.809827	75.613298
396	27	4	-0.66341273	20.629423	36.410704	75.341535
397	27	4	-0.66341273	22.039502	38.435085	74.794397
398	27	5	-0.98629526	21.439106	37.846298	77.153177
399	27	3	1.5785306	22.997038	37.489069	77.291875
400	27	4	-0.66341273	23.344491	36.421952	76.337361
401	27	4	-0.66341273	23.658433	38.800271	77.207346
402	27	1	0.53867169	23.302853	36.812084	79.062519
403	27	2	-0.26574309	22.918434	37.725759	80.013657
404	27	2	-0.26574309	22.596655	35.661736	79.296274
405	27	2	-0.26574309	24.627337	36.532052	79.275942
406	28	1	0.53867169	15.354674	-1.1357681	15.477618
407	28	2	-0.26574303	16.422372	-1.9870742	15.342765
408	28	2	-0.26574303	15.241752	-0.78782633	16.797401
409	28	2	-0.26574303	14.231812	-1.8698603	15.195445
410	28	3	1.5785306	15.499829	0.37764311	14.267608
411	28	4	-0.66341273	15.072286	-0.085745584	12.936821
412	28	4	-0.66341273	14.791005	1.5548444	14.792439
413	28	5	-0.98629526	17.01998	0.80354549	13.927912
414	28	3	1.5785306	17.660238	1.6232538	15.139127
415	28	4	-0.66341273	17.193909	3.0116719	14.978646
416	28	4	-0.66341273	17.370464	0.87962732	16.366147
417	28	1	0.53867169	19.564286	1.6509882	14.901158
418	28	2	-0.26574309	20.106382	0.39302278	14.932401
419	28	2	-0.26574309	19.89369	2.2048618	13.692427
420	28	2	-0.26574309	20.181811	2.4009845	15.870782
421	29	1	0.53867169	63.041644	53.457561	22.894454
422	29	2	-0.26574303	63.278017	52.220755	22.353268
423	29	2	-0.26574303	62.607932	53.276963	24.180408
424	29	2	-0.26574303	61.969633	53.982291	22.216687
425	29	3	1.5785306	64.567556	54.634771	22.802858
426	29	4	-0.66341273	64.995499	54.678092	21.39653
427	29	4	-0.66341273	64.175315	55.876517	23.497033
428	29	5	-0.98629526	65.806432	53.990273	23.575015
429	29	3	1.5785306	66.8712	55.109224	23.985851
430	29	4	-0.66341273	67.049069	56.025672	22.846634
431	29	4	-0.66341273	66.397781	55.64333	25.272384
432	29	1	0.53867169	68.566585	54.265518	24.291
433	29	2	-0.26574309	68.507428	53.342261	25.298986
434	29	2	-0.26574309	69.02072	53.623457	23.163776
435	29	2	-0.26574309	69.530416	55.174379	24.638429
436	30	1	0.53867169	64.68574	45.998087	22.426991
437	30	2	-0.26574303	65.304155	45.718236	21.232667
438	30	2	-0.26574303	63.946657	44.891047	22.749205
439	30	2	-0.26574303	63.79179	47.009201	22.176473
440	30	3	1.5785306	65.942736	46.484661	23.81078
441	30	4	-0.66341273	66.746907	47.602472	23.283465
442	30	4	-0.66341273	65.184999	46.649261	25.063894
443	30	5	-0.98629526	66.981874	45.284362	24.009633
444	30	3	1.5785306	67.741914	45.426121	25.417261
445	30	4	-0.66341273	68.150077	46.832175	25.592773
446	30	4	-0.66341273	66.848259	44.831834	26.426113
447	30	1	0.53867169	69.352098	44.379625	25.363638
448	30	2	-0.26574309	69.100761	43.055978	25.115664
449	30	2	-0.26574309	70.207248	44.826035	24.387305
450	30	2	-0.26574309	70.029702	44.455452	26.553946
451	31	1	0.53867169	41.295004	26.568177	42.640018
452	31	2	-0.26574303	41.826429	25.849047	41.600943
453	31	2	-0.26574303	40.380654	25.765657	43.270516
454	31	2	-0.26574303	40.602417	27.616758	42.090483
455	31	3	1.5785306	42.646303	27.193933	43.860292
456	31	4	-0.66341273	43.66292	27.917244	43.075666
457	31	4	-0.66341273	41.953716	27.895966	44.954386
458	31	5	-0.98629526	43.427386	25.936613	44.474745
459	31	3	1.5785306	44.152517	26.339304	45.841203
460	31	4	-0.66341273	44.807997	27.65043	45.668316
461	31	4	-0.66341273	43.149719	26.180263	46.908703
462	31	1	0.53867169	45.562959	25.088828	46.196175
463	31	2	-0.26574309	45.105934	23.806832	46.342025
464	31	2	-0.26574309	46.497836	25.094781	45.194149
465	31	2	-0.26574309	46.225848	25.429027	47.348289
466	32	1	0.53867169	44.297013	51.076608	37.459614
467	32	2	-0.26574303	43.762703	50.870309	36.21711
468	32	2	-0.26574303	44.582357	49.841847	37.982638
469	32	2	-0.26574303	43.329883	51.62962	38.254828
470	32	3	1.5785306	45.861764	52.189875	37.427297
471	32	4	-0.66341273	45.52711	53.453565	36.754711
472	32	4	-0.66341273	46.362438	52.269592	38.812022
473	32	5	-0.98629526	46.997552	51.485128	36.544666
474	32	3	1.5785306	48.430786	52.141657	36.826272
475	32	4	-0.66341273	48.267274	53.603106	36.839488
476	32	4	-0.66341273	48.930149	51.462431	38.038423
477	32	1	0.53867169	49.610887	51.691847	35.371616
478	32	2	-0.26574309	49.712644	50.336785	35.201523
479	32	2	-0.26574309	49.183478	52.222567	34.17999
480	32	2	-0.26574309	50.883269	52.145543	35.58656
481	33	1	0.53867169	7.9096055	8.767761	36.175401
482	33	2	-0.26574303	8.7773001	9.793784	36.448734
483	33	2	-0.26574303	8.5986805	7.5926334	36.336792
484	33	2	-0.26574303	7.5761622	8.8632256	34.848659
485	33	3	1.5785306	6.35032	8.8395315	37.297053
486	33	4	-0.66341273	5.7840151	10.193645	37.175486
487	33	4	-0.66341273	5.5173326	7.6700634	36.967397
488	33	5	-0.98629526	6.8000585	8.6109811	38.819017
489	33	3	1.5785306	5.6613785	9.1240495	39.824052
490	33	4	-0.66341273	5.9076351	10.567822	39.982123
491	33	4	-0.66341273	4.3563592	8.6495501	39.32817
492	33	1	0.53867169	5.9474611	8.2910085	41.540499
493	33	2	-0.26574309	5.8886427	6.9198531	41.464491
494	33	2	-0.26574309	7.1707761	8.6028177	42.073789
495	33	2	-0.26574309	5.0024503	8.6746269	42.455702
496	34	1	0.53867169	22.996662	40.927448	13.747164
497	34	2	-0.26574303	22.536616	42.172976	13.416343
498	34	2	-0.26574303	22.466612	40.601277	14.967301
499	34	2	-0.26574303	24.348805	41.053219	13.904047
500	34	3	1.5785306	22.60061	39.62934	12.392163
501	34	4	-0.66341273	23.219783	40.112023	11.147115
502	34	4	-0.66341273	22.968798	38.303082	12.917026
503	34	5	-0.98629526	21.029441	39.568646	12.145199
504	34	3	1.5785306	20.686383	38.824337	10.754521
505	34	4	-0.66341273	21.730402	37.830739	10.437641
506	34	4	-0.66341273	19.36095	38.256607	11.050907
507	34	1	0.53867169	20.488455	40.085511	9.2997628
508	34	2	-0.26574309	19.654075	41.118059	9.6445191
509	34	2	-0.26574309	21.672118	40.638337	8.8912791
510	34	2	-0.26574309	19.947573	39.47901	8.1966996
511	35	1	0.53867169	32.656567	35.955446	18.106288
512	35	2	-0.26574303	32.364552	34.910266	18.943455
513	35	2	-0.26574303	31.535215	36.727171	17.944129
514	35	2	-0.26574303	32.902324	35.407894	16.872174
515	35	3	1.5785306	34.205227	36.966622	18.690944
516	35	4	-0.66341273	35.39211	36.221392	18.223895
517	35	4	-0.66341273	34.101779	38.356173	18.222089
518	35	5	-0.98629526	34.444394	36.968346	20.286946
519	35	3	1.5785306	33.383687	37.908647	21.018515
520	35	4	-0.66341273	33.8574	39.291768	20.840225
521	35	4	-0.66341273	32.069645	37.510848	20.512571
522	35	1	0.53867169	33.430216	37.553926	22.902296
523	35	2	-0.26574309	33.086402	36.261702	23.188248
524	35	2	-0.26574309	34.689968	37.763157	23.404782
525	35	2	-0.26574309	32.580404	38.383596	23.588545
526	36	1	0.53867169	28.046272	65.061522	58.368864
527	36	2	-0.26574303	28.902712	64.168611	58.951678
528	36	2	-0.26574303	27.241867	65.529914	59.377322
529	36	2	-0.26574303	27.252624	64.36204	57.498903
530	36	3	1.5785306	28.978181	66.498628	57.491117
531	36	4	-0.66341273	29.956946	65.914583	56.557169
532	36	4	-0.66341273	27.966406	67.439318	56.999865
533	36	5	-0.98629526	29.831705	67.283583	58.591881
534	36	3	1.5785306	30.211039	68.762031	58.084111
535	36	4	-0.66341273	31.285956	69.098806	59.036436
536	36	4	-0.66341273	30.608144	68.706408	56.667557
537	36	1	0.53867169	28.783848	70.044565	58.359394
538	36	2	-0.26574309	27.925649	70.167556	57.300377
539	36	2	-0.26574309	28.050003	69.730134	59.475751
540	36	2	-0.26574309	29.300852	71.297045	58.566022
541	37	1	0.53867169	34.461403	68.508863	26.672683
542	37	2	-0.26574303	35.766649	68.276501	27.028251
543	37	2	-0.26574303	34.495234	69.347091	25.586343
544	37	2	-0.26574303	33.861425	69.19548	27.694368
545	37	3	1.5785306	33.538921	66.872768	26.266966
546	37	4	-0.66341273	33.586376	66.023173	27.459679
547	37	4	-0.66341273	32.246375	67.234898	25.660403
548	37	5	-0.98629526	34.353018	66.112747	25.120537
549	37	3	1.5785306	33.962579	64.545555	25.088573
550	37	4	-0.66341273	32.497067	64.4243	25.152421
551	37	4	-0.66341273	34.583814	64.130468	23.819027
552	37	1	0.53867169	34.808462	63.506074	26.497312
553	37	2	-0.26574309	35.984862	64.078097	26.914871
554	37	2	-0.26574309	34.010699	63.302774	27.592399