Title

14700 atoms
14400 bonds
26400 angles
42300 dihedrals
4500 impropers

11 atom types
11 bond types
8 angle types
22 dihedral types
4 improper types
-12.78361678 67.21638322 xlo xhi
-12.8643775 67.1356225 ylo yhi
-9.931920767 70.06807923 zlo zhi
0.0 0.0 0.0 xy xz yz

Masses

1	12.01078
2	18.998403
3	32.0655
4	15.99943
5	14.00672
6	12.01078
7	1.007947
8	1.007947
9	1.007947
10	1.007947
11	1.007947


Pair Coeffs

1	0.10884061	3.3795318
2	0.061	3.1181455
3	0.25	3.5635949
4	0.2102061	3.0398122
5	0.16769152	3.206876
6	0.086879315	3.4806469
7	0.015779483	2.6445434
8	0.016409246	2.5832257
9	0.013106998	2.4536265
10	0.0157	1.9599772
11	0.014797445	2.4419228

Bond Coeffs

1 harmonic	287.91882093395	1.359315559786
2 harmonic	156.8711507117	1.812798632943
3 harmonic	608.035974961	1.469758533467
4 harmonic	239.8447873633	1.642019753341
5 harmonic	215.30139056395	1.533627603844
6 harmonic	357.8191474159	1.094206460752
7 harmonic	225.97114073395	1.477375101044
8 harmonic	329.26307138675	1.389502949007
9 harmonic	452.0241811971	1.373209032276
10 harmonic	386.4399368291	1.08603610657
11 harmonic	505.163639116	1.309372378949


Angle Coeffs

1 harmonic	119.7125597221	107.2128707706
2 harmonic	66.75631831595	109.9380527584
3 harmonic	124.0884341307	113.2116558678
4 harmonic	94.25109102650001	120.4494266916
5 harmonic	79.47831834420001	121.7705343867
6 harmonic	91.51855890415	108.1730591511
7 harmonic	50.901762366	124.801611398
8 harmonic	36.776637850755	108.3543135269


Dihedral Coeffs

1 fourier 1	-1.572239594429	1	180
2 fourier 1	0.316444679891	2	0
3 fourier 1	0.1426731536269	3	0
4 fourier 1	0.2057583936885	3	0
5 fourier 1	0.3549667638131	3	0
6 fourier 1	0.2399307824079	2	180
7 fourier 1	0.9156101580834	1	180
8 fourier 1	0.0985377828486	3	0
9 fourier 1	0.143904881748	3	0
10 fourier 1	0.3215160932459	2	0
11 fourier 1	0.2510071310501	3	0
12 fourier 1	-0.1108037280545	4	180
13 fourier 1	-0.2219080374426	3	180
14 fourier 1	0.8434650381516	2	0
15 fourier 1	-0.1523281600983	1	0
16 fourier 1	1.469128273675	2	180
17 fourier 1	4.626306460904	2	180
18 fourier 1	1.012490953194	2	180
19 fourier 1	1.409955177277	2	180
20 fourier 1	1.079567853188	2	180
21 fourier 1	1.601769915929	1	0
22 fourier 1	0.2279946533057	3	0


Improper Coeffs

1 5.335286357863333	-1	2
2 1.743596855104667	-1	2
3 3.374156584723333	-1	2
4 0.4187541668506667	-1	2


Atoms

1	1	1	0.53867169	61.922183	71.464429	9.3162721
2	1	2	-0.26574303	62.085457	70.481086	10.247298
3	1	2	-0.26574303	61.318607	70.891857	8.2293952
4	1	2	-0.26574303	63.172512	71.859803	8.9224845
5	1	3	1.5785306	60.922556	72.953291	9.9912173
6	1	4	-0.66341273	61.625137	73.438706	11.191144
7	1	4	-0.66341273	60.743823	73.871307	8.8529956
8	1	5	-0.98629526	59.503579	72.425361	10.522642
9	1	3	1.5785306	58.40838	73.593979	10.397708
10	1	4	-0.66341273	59.011235	74.825492	10.934933
11	1	4	-0.66341273	57.948732	73.522177	9.0023214
12	1	1	0.53867169	56.908422	73.149157	11.521677
13	1	2	-0.26574309	56.507225	71.847887	11.343204
14	1	2	-0.26574309	57.20737	73.28402	12.853351
15	1	2	-0.26574309	55.825992	73.951697	11.275464
16	2	1	0.53867169	25.972469	69.070954	68.937082
17	2	2	-0.26574303	25.055237	69.547954	68.037419
18	2	2	-0.26574303	25.433438	67.962766	69.537964
19	2	2	-0.26574303	26.043851	70.011315	69.933004
20	2	3	1.5785306	27.722836	68.793035	68.127456
21	2	4	-0.66341273	28.373926	70.110359	68.052239
22	2	4	-0.66341273	28.479545	67.765036	68.860183
23	2	5	-0.98629526	27.668517	68.396463	66.569061
24	2	3	1.5785306	27.27329	66.859384	66.376429
25	2	4	-0.66341273	28.54316	66.131005	66.538982
26	2	4	-0.66341273	26.141016	66.612887	67.279148
27	2	1	0.53867169	26.657228	66.623859	64.562936
28	2	2	-0.26574309	25.575044	67.422643	64.304204
29	2	2	-0.26574309	27.622826	66.950092	63.648
30	2	2	-0.26574309	26.271501	65.340061	64.293275
31	3	1	0.53867169	52.154059	27.020791	48.220029
32	3	2	-0.26574303	51.893878	26.238415	49.312439
33	3	2	-0.26574303	51.578226	26.399782	47.148967
34	3	2	-0.26574303	53.506918	26.981914	48.002372
35	3	3	1.5785306	51.541781	28.837135	48.500829
36	3	4	-0.66341273	52.150664	29.316945	49.753323
37	3	4	-0.66341273	51.827931	29.661994	47.317309
38	3	5	-0.98629526	49.970512	28.874574	48.855987
39	3	3	1.5785306	49.088178	29.125421	47.537684
40	3	4	-0.66341273	49.112144	30.577042	47.309847
41	3	4	-0.66341273	49.58252	28.205059	46.49981
42	3	1	0.53867169	47.276559	28.617032	47.920718
43	3	2	-0.26574309	47.174492	27.260933	48.084579
44	3	2	-0.26574309	46.816583	29.185169	49.079103
45	3	2	-0.26574309	46.419258	28.959594	46.908121
46	4	1	0.53867169	29.011016	27.774761	57.256374
47	4	2	-0.26574303	27.707007	28.16231	57.416916
48	4	2	-0.26574303	29.389613	27.056284	58.361158
49	4	2	-0.26574303	29.771707	28.916402	57.298446
50	4	3	1.5785306	29.288049	26.833675	55.581594
51	4	4	-0.66341273	29.509592	27.850749	54.538565
52	4	4	-0.66341273	30.374212	25.851533	55.719647
53	4	5	-0.98629526	27.969561	26.096675	55.03428
54	4	3	1.5785306	27.743647	24.707222	55.787067
55	4	4	-0.66341273	28.5238	23.716414	55.027108
56	4	4	-0.66341273	28.015952	24.93294	57.211595
57	4	1	0.53867169	25.892663	24.227366	55.60534
58	4	2	-0.26574309	25.062854	25.157428	56.173034
59	4	2	-0.26574309	25.530584	24.118125	54.28534
60	4	2	-0.26574309	25.627658	23.020506	56.192956
61	5	1	0.53867169	61.957397	60.063486	53.525438
62	5	2	-0.26574303	61.688089	60.015326	54.865746
63	5	2	-0.26574303	63.320575	60.140634	53.392353
64	5	2	-0.26574303	61.445346	61.241851	53.050179
65	5	3	1.5785306	61.247206	58.543997	52.582431
66	5	4	-0.66341273	59.80969	58.456883	52.8897
67	5	4	-0.66341273	61.701617	58.66662	51.186562
68	5	5	-0.98629526	61.874275	57.207403	53.209448
69	5	3	1.5785306	61.817055	56.003094	52.13655
70	5	4	-0.66341273	60.505896	56.035576	51.469822
71	5	4	-0.66341273	63.046551	56.159635	51.343327
72	5	1	0.53867169	61.954384	54.342294	53.074121
73	5	2	-0.26574309	62.843423	54.429426	54.109778
74	5	2	-0.26574309	60.75223	53.952904	53.58603
75	5	2	-0.26574309	62.387357	53.336654	52.266221
76	6	1	0.53867169	5.9366745	21.082716	30.834494
77	6	2	-0.26574303	4.9021143	20.186026	30.747929
78	6	2	-0.26574303	6.2510383	21.185999	32.161033
79	6	2	-0.26574303	5.4500657	22.303576	30.445387
80	6	3	1.5785306	7.4388099	20.542903	29.754467
81	6	4	-0.66341273	6.9654369	20.486789	28.361704
82	6	4	-0.66341273	8.5755605	21.420741	30.079429
83	6	5	-0.98629526	7.849856	19.033537	30.132596
84	6	3	1.5785306	9.3244481	18.717448	29.577851
85	6	4	-0.66341273	9.5269936	19.35853	28.268526
86	6	4	-0.66341273	10.231707	19.060897	30.684414
87	6	1	0.53867169	9.4876403	16.825085	29.295845
88	6	2	-0.26574309	9.3902582	16.122967	30.468168
89	6	2	-0.26574309	8.526178	16.336799	28.45305
90	6	2	-0.26574309	10.705776	16.503576	28.754036
91	7	1	0.53867169	52.30895	36.388738	54.264498
92	7	2	-0.26574303	51.367426	36.472454	55.255694
93	7	2	-0.26574303	53.35237	37.193854	54.63706
94	7	2	-0.26574303	51.780009	36.972637	53.143277
95	7	3	1.5785306	52.8162	34.548652	53.908114
96	7	4	-0.66341273	51.675868	33.890827	53.249054
97	7	4	-0.66341273	54.085078	34.509854	53.155875
98	7	5	-0.98629526	52.956223	33.680375	55.261407
99	7	3	1.5785306	54.414062	33.79873	55.883517
100	7	4	-0.66341273	55.241885	32.855122	55.113864
101	7	4	-0.66341273	54.740028	35.23092	55.93576
102	7	1	0.53867169	54.352865	33.162017	57.698865
103	7	2	-0.26574309	53.514695	33.913128	58.480883
104	7	2	-0.26574309	53.918905	31.862161	57.76792
105	7	2	-0.26574309	55.585179	33.20971	58.29597
106	8	1	0.53867169	17.34356	56.376195	73.9256
107	8	2	-0.26574303	16.609569	57.204685	74.738469
108	8	2	-0.26574303	17.308695	56.909618	72.663779
109	8	2	-0.26574303	16.676414	55.178804	73.883481
110	8	3	1.5785306	19.141309	56.174026	74.585147
111	8	4	-0.66341273	19.788363	57.490153	74.544582
112	8	4	-0.66341273	19.063097	55.463219	75.871387
113	8	5	-0.98629526	19.953061	55.186	73.638425
114	8	3	1.5785306	21.536398	55.301895	73.907762
115	8	4	-0.66341273	22.022336	53.99682	73.422546
116	8	4	-0.66341273	22.005539	56.468349	73.144393
117	8	1	0.53867169	22.091258	55.435905	75.77424
118	8	2	-0.26574309	21.686559	56.571569	76.425257
119	8	2	-0.26574309	21.664288	54.364562	76.516533
120	8	2	-0.26574309	23.458805	55.426216	75.863414
121	9	1	0.53867169	55.231652	18.317636	15.145665
122	9	2	-0.26574303	55.300441	18.212314	13.778087
123	9	2	-0.26574303	55.00936	17.056919	15.629816
124	9	2	-0.26574303	54.123378	19.06965	15.433675
125	9	3	1.5785306	56.826601	19.104306	15.874891
126	9	4	-0.66341273	57.059746	20.351889	15.135262
127	9	4	-0.66341273	56.677508	19.190658	17.33586
128	9	5	-0.98629526	58.062377	18.14455	15.529052
129	9	3	1.5785306	59.354968	18.523016	16.400257
130	9	4	-0.66341273	59.583616	19.972769	16.261823
131	9	4	-0.66341273	59.14185	17.97024	17.745728
132	9	1	0.53867169	60.87194	17.621242	15.639269
133	9	2	-0.26574309	60.721092	16.25878	15.667146
134	9	2	-0.26574309	61.060963	17.976772	14.32713
135	9	2	-0.26574309	62.023935	17.920027	16.319028
136	10	1	0.53867169	32.274997	49.198794	61.218004
137	10	2	-0.26574303	33.278854	48.811822	60.368233
138	10	2	-0.26574303	31.745105	48.053741	61.762328
139	10	2	-0.26574303	31.289299	49.774909	60.457654
140	10	3	1.5785306	32.904112	50.395665	62.58595
141	10	4	-0.66341273	33.609893	51.507559	61.927624
142	10	4	-0.66341273	31.764507	50.659385	63.482747
143	10	5	-0.98629526	34.038846	49.652214	63.431792
144	10	3	1.5785306	34.22539	50.349803	64.864745
145	10	4	-0.66341273	34.085422	51.810942	64.72548
146	10	4	-0.66341273	33.302095	49.614568	65.743437
147	10	1	0.53867169	36.012454	50.002804	65.477428
148	10	2	-0.26574309	36.268525	48.658495	65.568347
149	10	2	-0.26574309	36.945848	50.539856	64.626856
150	10	2	-0.26574309	36.233315	50.544977	66.717196
151	11	1	0.53867169	26.956937	16.002207	38.478348
152	11	2	-0.26574303	28.183646	16.511706	38.140528
153	11	2	-0.26574303	26.853838	16.086929	39.844451
154	11	2	-0.26574303	26.961248	14.670113	38.15325
155	11	3	1.5785306	25.520136	16.937717	37.608316
156	11	4	-0.66341273	25.851264	17.035633	36.178291
157	11	4	-0.66341273	24.263875	16.278042	38.008468
158	11	5	-0.98629526	25.502319	18.444461	38.158169
159	11	3	1.5785306	24.079578	19.127126	37.873402
160	11	4	-0.66341273	23.636367	18.751385	36.520746
161	11	4	-0.66341273	23.254035	18.765846	39.036095
162	11	1	0.53867169	24.29781	21.039882	37.900541
163	11	2	-0.26574309	24.861293	21.469908	39.075787
164	11	2	-0.26574309	25.102494	21.478379	36.88199
165	11	2	-0.26574309	23.098831	21.692121	37.76571
166	12	1	0.53867169	61.515217	40.36212	29.109619
167	12	2	-0.26574303	62.402272	39.745276	28.264785
168	12	2	-0.26574303	61.541524	41.704245	28.824153
169	12	2	-0.26574303	62.002721	40.218978	30.383172
170	12	3	1.5785306	59.740381	39.632378	28.953056
171	12	4	-0.66341273	59.835243	38.174474	29.152384
172	12	4	-0.66341273	58.862643	40.436931	29.824126
173	12	5	-0.98629526	59.24397	39.797912	27.438293
174	12	3	1.5785306	57.649579	39.719973	27.362428
175	12	4	-0.66341273	57.19244	38.632517	28.241553
176	12	4	-0.66341273	57.181115	41.102171	27.580886
177	12	1	0.53867169	57.147455	39.228337	25.574074
178	12	2	-0.26574309	57.562165	40.154634	24.653645
179	12	2	-0.26574309	57.678051	38.014171	25.213499
180	12	2	-0.26574309	55.784831	39.12981	25.445547
181	13	1	0.53867169	17.920865	56.793909	59.086299
182	13	2	-0.26574303	17.656596	58.105869	58.783269
183	13	2	-0.26574303	19.116932	56.475363	58.499475
184	13	2	-0.26574303	16.961579	56.051507	58.440018
185	13	3	1.5785306	17.927725	56.46605	60.987248
186	13	4	-0.66341273	16.625875	56.923923	61.499963
187	13	4	-0.66341273	18.337345	55.065131	61.175132
188	13	5	-0.98629526	19.096781	57.339354	61.66244
189	13	3	1.5785306	18.80612	57.546473	63.22875
190	13	4	-0.66341273	17.858698	58.669252	63.315282
191	13	4	-0.66341273	18.452828	56.238284	63.807383
192	13	1	0.53867169	20.417998	58.12943	64.101119
193	13	2	-0.26574309	21.400173	57.1768	64.061294
194	13	2	-0.26574309	20.932989	59.266396	63.535533
195	13	2	-0.26574309	20.188122	58.406525	65.424175
196	14	1	0.53867169	50.627828	34.394655	71.163578
197	14	2	-0.26574303	51.704674	33.71022	71.670108
198	14	2	-0.26574303	50.915761	35.729334	71.283669
199	14	2	-0.26574303	49.553466	34.121959	71.96075
200	14	3	1.5785306	50.280628	33.919082	69.340119
201	14	4	-0.66341273	49.976325	32.48029	69.308891
202	14	4	-0.66341273	49.301786	34.881203	68.802648
203	14	5	-0.98629526	51.655931	34.078038	68.530469
204	14	3	1.5785306	51.373272	34.251671	66.963682
205	14	4	-0.66341273	50.360818	33.25994	66.560807
206	14	4	-0.66341273	51.131172	35.696049	66.798816
207	14	1	0.53867169	53.006587	33.836715	66.051822
208	14	2	-0.26574309	54.032297	34.590874	66.558075
209	14	2	-0.26574309	53.356347	32.520235	66.21048
210	14	2	-0.26574309	52.944498	34.07733	64.706984
211	15	1	0.53867169	65.915852	13.933091	6.1562526
212	15	2	-0.26574303	66.212149	12.701682	5.6311607
213	15	2	-0.26574303	64.723711	14.330738	5.609805
214	15	2	-0.26574303	66.8712	14.807532	5.7039189
215	15	3	1.5785306	65.861731	13.901389	8.0804855
216	15	4	-0.66341273	67.160115	13.383749	8.546229
217	15	4	-0.66341273	65.423045	15.233169	8.5345775
218	15	5	-0.98629526	64.779005	12.827517	8.5652786
219	15	3	1.5785306	64.357104	13.100879	10.091795
220	15	4	-0.66341273	65.558376	13.474529	10.8646
221	15	4	-0.66341273	63.236094	14.051127	10.021442
222	15	1	0.53867169	63.674393	11.46502	10.840672
223	15	2	-0.26574309	62.59141	10.992795	10.141762
224	15	2	-0.26574309	64.620981	10.472386	10.843084
225	15	2	-0.26574309	63.268776	11.636615	12.139823
226	16	1	0.53867169	17.322427	23.288305	35.778275
227	16	2	-0.26574303	17.647977	23.946693	34.617512
228	16	2	-0.26574303	17.386072	24.209328	36.791253
229	16	2	-0.26574303	18.323147	22.381837	36.011307
230	16	3	1.5785306	15.597278	22.439146	35.662582
231	16	4	-0.66341273	15.628126	21.541467	34.492881
232	16	4	-0.66341273	15.263642	21.897914	36.98688
233	16	5	-0.98629526	14.508895	23.554831	35.331457
234	16	3	1.5785306	13.003552	23.033857	35.571532
235	16	4	-0.66341273	12.26416	23.893304	34.629519
236	16	4	-0.66341273	12.943996	21.588614	35.290108
237	16	1	0.53867169	12.346859	23.396492	37.361896
238	16	2	-0.26574309	12.443115	24.721735	37.690921
239	16	2	-0.26574309	11.023635	23.060429	37.468932
240	16	2	-0.26574309	12.990475	22.691214	38.341496
241	17	1	0.53867169	16.209815	32.778296	51.342487
242	17	2	-0.26574303	15.538495	32.383807	50.217991
243	17	2	-0.26574303	17.544786	32.782314	51.02634
244	17	2	-0.26574303	16.015588	31.817727	52.297559
245	17	3	1.5785306	15.627053	34.507322	51.943173
246	17	4	-0.66341273	14.158851	34.495919	51.995764
247	17	4	-0.66341273	16.444352	34.852612	53.117542
248	17	5	-0.98629526	16.008466	35.591896	50.82232
249	17	3	1.5785306	15.295731	37.018106	51.12555
250	17	4	-0.66341273	15.02617	37.173243	52.562742
251	17	4	-0.66341273	16.286943	37.937968	50.54368
252	17	1	0.53867169	13.651893	37.204316	50.123544
253	17	2	-0.26574309	13.874438	37.025855	48.782372
254	17	2	-0.26574309	12.686402	36.300344	50.477695
255	17	2	-0.26574309	13.104717	38.446431	50.280914
256	18	1	0.53867169	49.597406	23.308184	33.865287
257	18	2	-0.26574303	48.423619	23.689325	33.268933
258	18	2	-0.26574303	49.281511	22.684331	35.042956
259	18	2	-0.26574303	50.260086	24.463983	34.195182
260	18	3	1.5785306	50.652585	22.178392	32.716236
261	18	4	-0.66341273	49.965067	20.892599	32.567959
262	18	4	-0.66341273	51.027522	22.956851	31.528473
263	18	5	-0.98629526	51.989365	21.791708	33.475294
264	18	3	1.5785306	53.083329	21.2041	32.455494
265	18	4	-0.66341273	53.769116	22.376502	31.884432
266	18	4	-0.66341273	53.889508	20.375104	33.364408
267	18	1	0.53867169	52.439528	20.02522	31.046078
268	18	2	-0.26574309	51.648326	20.636818	30.111935
269	18	2	-0.26574309	53.506145	19.516242	30.356979
270	18	2	-0.26574309	51.768236	18.943021	31.550565
271	19	1	0.53867169	59.073186	28.924253	53.161907
272	19	2	-0.26574303	58.773894	29.825451	54.150491
273	19	2	-0.26574303	59.280119	29.622848	52.002454
274	19	2	-0.26574303	57.925162	28.209023	52.954702
275	19	3	1.5785306	60.532532	27.740242	53.67311
276	19	4	-0.66341273	60.165539	27.132349	54.961853
277	19	4	-0.66341273	60.843229	26.792343	52.59119
278	19	5	-0.98629526	61.940365	28.438983	54.046445
279	19	3	1.5785306	62.252746	29.647045	53.059793
280	19	4	-0.66341273	62.092938	29.14736	51.690826
281	19	4	-0.66341273	61.419883	30.758405	53.539491
282	19	1	0.53867169	64.103103	30.130472	53.287506
283	19	2	-0.26574309	64.377589	30.544794	54.563575
284	19	2	-0.26574309	64.936762	29.069114	53.033767
285	19	2	-0.26574309	64.497247	31.139474	52.44812
286	20	1	0.53867169	7.4131352	56.839299	9.3699747
287	20	2	-0.26574303	6.914975	57.581697	10.411346
288	20	2	-0.26574303	7.2110105	57.561994	8.2220542
289	20	2	-0.26574303	6.641528	55.708985	9.278965
290	20	3	1.5785306	9.2698264	56.403975	9.6267205
291	20	4	-0.66341273	9.3934935	55.764217	10.949539
292	20	4	-0.66341273	9.7221518	55.667553	8.4314334
293	20	5	-0.98629526	10.10502	57.76793	9.7377545
294	20	3	1.5785306	11.648296	57.514629	9.3909472
295	20	4	-0.66341273	12.074497	56.254983	10.024716
296	20	4	-0.66341273	11.742538	57.648048	7.92656
297	20	1	0.53867169	12.689834	58.940163	10.155181
298	20	2	-0.26574309	12.306153	60.167632	9.6704876
299	20	2	-0.26574309	12.572409	58.988571	11.519936
300	20	2	-0.26574309	14.021618	58.80302	9.8611867
301	21	1	0.53867169	70.902462	62.417107	15.716116
302	21	2	-0.26574303	69.791713	62.157779	16.479393
303	21	2	-0.26574303	71.626563	61.262074	15.613871
304	21	2	-0.26574303	71.659379	63.284149	16.458253
305	21	3	1.5785306	70.417328	63.242235	14.019465
306	21	4	-0.66341273	69.617577	64.435816	14.351809
307	21	4	-0.66341273	71.597128	63.51696	13.185022
308	21	5	-0.98629526	69.392347	62.420697	13.093666
309	21	3	1.5785306	69.765663	60.872121	13.076186
310	21	4	-0.66341273	71.212378	60.766616	12.861173
311	21	4	-0.66341273	69.166327	60.353646	14.313939
312	21	1	0.53867169	68.894739	60.040097	11.575865
313	21	2	-0.26574309	67.534351	60.177422	11.631608
314	21	2	-0.26574309	69.299254	60.598226	10.388068
315	21	2	-0.26574309	69.168696	58.698354	11.510444
316	22	1	0.53867169	37.432635	22.282181	68.4162
317	22	2	-0.26574303	37.174113	20.992589	68.042588
318	22	2	-0.26574303	37.972124	22.937822	67.335453
319	22	2	-0.26574303	38.393943	22.259672	69.389362
320	22	3	1.5785306	35.856297	23.180149	69.02741
321	22	4	-0.66341273	35.288563	22.386165	70.125918
322	22	4	-0.66341273	36.238539	24.588568	69.238968
323	22	5	-0.98629526	34.763021	23.134727	67.851176
324	22	3	1.5785306	33.694277	24.311948	68.041983
325	22	4	-0.66341273	33.320293	24.39409	69.462409
326	22	4	-0.66341273	34.309211	25.470088	67.360163
327	22	1	0.53867169	32.10283	23.857329	67.061915
328	22	2	-0.26574309	32.366078	23.655157	65.731487
329	22	2	-0.26574309	31.514168	22.713718	67.535844
330	22	2	-0.26574309	31.167653	24.856145	67.137985
331	23	1	0.53867169	63.307672	35.556128	71.328912
332	23	2	-0.26574303	62.450638	36.271579	70.531087
333	23	2	-0.26574303	63.111134	35.990348	72.615571
334	23	2	-0.26574303	64.589405	35.882666	70.973763
335	23	3	1.5785306	62.989841	33.669968	71.18093
336	23	4	-0.66341273	63.11317	33.304293	69.761295
337	23	4	-0.66341273	63.814726	33.002839	72.203612
338	23	5	-0.98629526	61.441894	33.398349	71.531639
339	23	3	1.5785306	61.228952	31.856527	71.928
340	23	4	-0.66341273	61.977935	31.021569	70.97559
341	23	4	-0.66341273	61.523747	31.79961	73.370109
342	23	1	0.53867169	59.368215	31.449528	71.694598
343	23	2	-0.26574309	58.571763	32.27324	72.45153
344	23	2	-0.26574309	58.984904	31.622853	70.389028
345	23	2	-0.26574309	59.076176	30.158653	72.040792
346	24	1	0.53867169	72.553096	44.487791	60.733852
347	24	2	-0.26574303	72.145047	45.334315	61.736789
348	24	2	-0.26574303	72.709818	43.249784	61.302371
349	24	2	-0.26574303	73.793025	44.907446	60.332971
350	24	3	1.5785306	71.294599	44.467688	59.275937
351	24	4	-0.66341273	71.186528	45.851884	58.785939
352	24	4	-0.66341273	71.683288	43.374982	58.374071
353	24	5	-0.98629526	69.833617	44.1576	59.880495
354	24	3	1.5785306	68.870864	43.581128	58.726287
355	24	4	-0.66341273	69.036837	44.430547	57.537727
356	24	4	-0.66341273	69.144893	42.136307	58.682919
357	24	1	0.53867169	67.044134	43.777709	59.294634
358	24	2	-0.26574309	66.793194	43.067904	60.440035
359	24	2	-0.26574309	66.730351	45.09181	59.535222
360	24	2	-0.26574309	66.166277	43.322182	58.342667
361	25	1	0.53867169	40.991325	66.833544	15.635495
362	25	2	-0.26574303	40.446677	65.716887	15.05057
363	25	2	-0.26574303	42.114244	67.184968	14.939121
364	25	2	-0.26574303	41.420507	66.441293	16.876146
365	25	3	1.5785306	39.672427	68.246298	15.791802
366	25	4	-0.66341273	38.856516	67.935896	16.978741
367	25	4	-0.66341273	40.293479	69.579048	15.770892
368	25	5	-0.98629526	38.531606	68.179321	14.65117
369	25	3	1.5785306	39.06069	68.81978	13.286403
370	25	4	-0.66341273	38.834198	70.265517	13.437157
371	25	4	-0.66341273	40.400267	68.272567	13.056681
372	25	1	0.53867169	37.927494	68.215251	11.856909
373	25	2	-0.26574309	37.921157	66.847839	11.745372
374	25	2	-0.26574309	36.62653	68.60548	12.050707
375	25	2	-0.26574309	38.316631	68.710952	10.640711
376	26	1	0.53867169	31.477091	10.887077	67.486839
377	26	2	-0.26574303	31.745799	10.408579	66.230769
378	26	2	-0.26574303	30.360551	10.248432	67.952528
379	26	2	-0.26574303	31.106238	12.197226	67.33675
380	26	3	1.5785306	33.022678	10.751041	68.646984
381	26	4	-0.66341273	34.046059	11.652008	68.089752
382	26	4	-0.66341273	32.624319	11.002039	70.044556
383	26	5	-0.98629526	33.758097	9.3210393	68.5256
384	26	3	1.5785306	33.143423	8.2644993	69.554133
385	26	4	-0.66341273	33.791671	8.5531861	70.845647
386	26	4	-0.66341273	31.682527	8.3588231	69.430737
387	26	1	0.53867169	33.671756	6.4920604	69.028168
388	26	2	-0.26574309	33.175771	6.1576861	67.795939
389	26	2	-0.26574309	35.036879	6.3686109	68.964863
390	26	2	-0.26574309	33.220203	5.5532777	69.919715
391	27	1	0.53867169	24.147396	31.290789	70.741305
392	27	2	-0.26574303	24.068856	30.949814	69.414454
393	27	2	-0.26574303	25.325842	31.971748	70.915904
394	27	2	-0.26574303	24.2454	30.123279	71.454067
395	27	3	1.5785306	22.633374	32.335849	71.300859
396	27	4	-0.66341273	21.421907	31.574824	70.948677
397	27	4	-0.66341273	22.862644	32.722659	72.705503
398	27	5	-0.98629526	22.573361	33.663261	70.394106
399	27	3	1.5785306	21.727719	34.803417	71.134977
400	27	4	-0.66341273	20.495429	34.190795	71.657677
401	27	4	-0.66341273	22.669611	35.453227	72.062564
402	27	1	0.53867169	21.207952	36.129496	69.852371
403	27	2	-0.26574309	22.300243	36.711438	69.254084
404	27	2	-0.26574309	20.430443	35.597868	68.85787
405	27	2	-0.26574309	20.487189	37.125933	70.453954
406	28	1	0.53867169	13.89344	5.5619079	19.180611
407	28	2	-0.26574303	14.484168	5.5020684	20.416741
408	28	2	-0.26574303	14.497715	6.5863848	18.494595
409	28	2	-0.26574303	12.585571	5.9287256	19.375918
410	28	3	1.5785306	14.025439	3.8944244	18.22664
411	28	4	-0.66341273	13.491499	2.8436863	19.105711
412	28	4	-0.66341273	13.434438	4.1130531	16.892592
413	28	5	-0.98629526	15.571899	3.5549241	18.019793
414	28	3	1.5785306	15.779635	2.44509	16.876193
415	28	4	-0.66341273	14.662968	1.4848037	16.899495
416	28	4	-0.66341273	15.953034	3.2277131	15.639592
417	28	1	0.53867169	17.411139	1.4871168	17.254102
418	28	2	-0.26574309	18.49929	2.3213652	17.296464
419	28	2	-0.26574309	17.35043	0.85592225	18.4699
420	28	2	-0.26574309	17.673862	0.51511452	16.326813
421	29	1	0.53867169	63.364382	57.798214	22.450378
422	29	2	-0.26574303	62.855301	56.656313	21.888149
423	29	2	-0.26574303	62.413874	58.774157	22.316539
424	29	2	-0.26574303	64.440594	58.194513	21.69975
425	29	3	1.5785306	63.845944	57.551517	24.294469
426	29	4	-0.66341273	64.812512	56.447616	24.372268
427	29	4	-0.66341273	64.246583	58.868446	24.823771
428	29	5	-0.98629526	62.560511	57.044787	25.106754
429	29	3	1.5785306	62.73303	57.324781	26.674738
430	29	4	-0.66341273	64.098763	56.937623	27.07082
431	29	4	-0.66341273	62.306061	58.720045	26.870513
432	29	1	0.53867169	61.509595	56.195292	27.638304
433	29	2	-0.26574309	60.208988	56.413302	27.270398
434	29	2	-0.26574309	61.75971	54.864688	27.41446
435	29	2	-0.26574309	61.590738	56.407828	28.989625
436	30	1	0.53867169	62.125793	44.203968	19.090014
437	30	2	-0.26574303	61.319013	43.097086	18.994755
438	30	2	-0.26574303	61.314816	45.301332	18.952498
439	30	2	-0.26574303	62.953572	44.184508	17.996788
440	30	3	1.5785306	63.130388	44.251738	20.736015
441	30	4	-0.66341273	63.877945	42.987242	20.833924
442	30	4	-0.66341273	63.872147	45.526505	20.756578
443	30	5	-0.98629526	62.108054	44.232292	21.963503
444	30	3	1.5785306	62.7982	44.792838	23.298528
445	30	4	-0.66341273	64.183636	44.290724	23.3845
446	30	4	-0.66341273	62.573829	46.248178	23.273544
447	30	1	0.53867169	61.844292	44.085174	24.812796
448	30	2	-0.26574309	60.498834	44.336829	24.736378
449	30	2	-0.26574309	61.99873	42.727523	24.918075
450	30	2	-0.26574309	62.29187	44.630837	25.988533
451	31	1	0.53867169	22.624114	17.123681	26.657281
452	31	2	-0.26574303	23.731706	17.794982	26.208332
453	31	2	-0.26574303	22.605047	15.885229	26.074407
454	31	2	-0.26574303	21.535809	17.787858	26.150715
455	31	3	1.5785306	22.551904	17.071184	28.597736
456	31	4	-0.66341273	21.863043	18.2906	29.054499
457	31	4	-0.66341273	21.946955	15.818994	29.080997
458	31	5	-0.98629526	23.986039	17.270379	29.300191
459	31	3	1.5785306	24.815953	15.89852	29.260659
460	31	4	-0.66341273	24.355221	15.137552	30.433125
461	31	4	-0.66341273	24.650457	15.348996	27.910683
462	31	1	0.53867169	26.680295	16.292495	29.509997
463	31	2	-0.26574309	27.163639	17.078216	28.496685
464	31	2	-0.26574309	26.904192	16.963693	30.685441
465	31	2	-0.26574309	27.440677	15.152454	29.540498
466	32	1	0.53867169	46.958075	52.193251	35.985267
467	32	2	-0.26574303	47.368369	52.871823	34.864955
468	32	2	-0.26574303	47.574339	50.970402	35.965149
469	32	2	-0.26574303	45.612402	51.983004	35.835412
470	32	3	1.5785306	47.345557	53.173308	37.596736
471	32	4	-0.66341273	46.731448	54.509244	37.452791
472	32	4	-0.66341273	46.975479	52.319927	38.737175
473	32	5	-0.98629526	48.921976	53.470736	37.65569
474	32	3	1.5785306	49.374394	53.748899	39.168108
475	32	4	-0.66341273	48.36657	54.628272	39.784019
476	32	4	-0.66341273	49.663582	52.423458	39.744327
477	32	1	0.53867169	51.023469	54.73433	39.15189
478	32	2	-0.26574309	52.014008	54.091525	38.455818
479	32	2	-0.26574309	50.871139	55.972109	38.583
480	32	2	-0.26574309	51.489511	54.935308	40.422297
481	33	1	0.53867169	13.50192	10.343388	41.955419
482	33	2	-0.26574303	14.291049	11.010329	42.860055
483	33	2	-0.26574303	12.20189	10.69713	42.214379
484	33	2	-0.26574303	13.621995	9.0057409	42.216883
485	33	3	1.5785306	13.993496	10.765088	40.146937
486	33	4	-0.66341273	15.441178	10.529032	40.022826
487	33	4	-0.66341273	13.050462	10.07004	39.256303
488	33	5	-0.98629526	13.685409	12.323453	39.899368
489	33	3	1.5785306	14.607103	12.891887	38.710315
490	33	4	-0.66341273	15.875474	13.261395	39.362135
491	33	4	-0.66341273	14.604272	11.902502	37.620153
492	33	1	0.53867169	13.803865	14.499105	38.026121
493	33	2	-0.26574309	12.574143	14.25752	37.481456
494	33	2	-0.26574309	13.63458	15.449134	38.999865
495	33	2	-0.26574309	14.546236	15.060289	37.028241
496	34	1	0.53867169	25.434577	35.882947	0.14947123
497	34	2	-0.26574303	25.477557	36.210024	1.4803106
498	34	2	-0.26574303	24.288681	36.431396	-0.3709656
499	34	2	-0.26574303	25.307989	34.521754	0.063256593
500	34	3	1.5785306	26.992056	36.50876	-0.78486323
501	34	4	-0.66341273	28.175015	35.983212	-0.08247369
502	34	4	-0.66341273	26.78652	36.211202	-2.2119123
503	34	5	-0.98629526	27.083225	38.103781	-0.59481882
504	34	3	1.5785306	27.9796	38.757381	-1.7534339
505	34	4	-0.66341273	29.222088	37.973485	-1.850462
506	34	4	-0.66341273	27.083232	38.901763	-2.9122451
507	34	1	0.53867169	28.473628	40.534759	-1.1902979
508	34	2	-0.26574309	27.384436	41.343031	-0.99421121
509	34	2	-0.26574309	29.162185	40.522943	-0.0036137245
510	34	2	-0.26574309	29.276042	41.167135	-2.1033232
511	35	1	0.53867169	30.356219	31.347995	16.160719
512	35	2	-0.26574303	28.986418	31.399367	16.158609
513	35	2	-0.26574303	30.799353	32.364514	15.35042
514	35	2	-0.26574303	30.721993	30.167727	15.566216
515	35	3	1.5785306	31.074951	31.502082	17.938112
516	35	4	-0.66341273	30.454144	30.468733	18.772008
517	35	4	-0.66341273	32.539928	31.580956	17.81703
518	35	5	-0.98629526	30.636399	32.918355	18.545965
519	35	3	1.5785306	30.727949	32.901223	20.151601
520	35	4	-0.66341273	32.029705	32.337861	20.540991
521	35	4	-0.66341273	30.591807	34.341173	20.442433
522	35	1	0.53867169	29.258525	31.968708	21.025527
523	35	2	-0.26574309	28.126462	31.956658	20.25444
524	35	2	-0.26574309	29.556818	30.682182	21.386552
525	35	2	-0.26574309	28.924234	32.584906	22.202494
526	36	1	0.53867169	44.585676	66.343656	49.700303
527	36	2	-0.26574303	44.857202	65.907168	50.970488
528	36	2	-0.26574303	43.310137	66.837001	49.684534
529	36	2	-0.26574303	44.570823	65.229726	48.905616
530	36	3	1.5785306	45.924983	67.606907	49.095392
531	36	4	-0.66341273	47.094336	66.833954	48.645287
532	36	4	-0.66341273	45.367899	68.566451	48.125968
533	36	5	-0.98629526	46.614685	68.429031	50.298343
534	36	3	1.5785306	45.678253	69.634123	50.784078
535	36	4	-0.66341273	45.996933	70.743051	49.864283
536	36	4	-0.66341273	44.311585	69.110212	50.817003
537	36	1	0.53867169	46.209855	70.152822	52.560353
538	36	2	-0.26574309	45.906382	69.195075	53.487496
539	36	2	-0.26574309	47.564759	70.343361	52.628407
540	36	2	-0.26574309	45.628271	71.327891	52.951136
541	37	1	0.53867169	30.378335	65.144968	28.738174
542	37	2	-0.26574303	30.647562	66.358533	29.318519
543	37	2	-0.26574303	29.105964	64.791374	29.105697
544	37	2	-0.26574303	31.209633	64.232998	29.332125
545	37	3	1.5785306	30.645721	65.203996	26.813343
546	37	4	-0.66341273	32.081306	65.010009	26.546009
547	37	4	-0.66341273	29.731722	64.280434	26.119616
548	37	5	-0.98629526	30.421109	66.682925	26.206915
549	37	3	1.5785306	28.869739	66.992245	25.990772
550	37	4	-0.66341273	28.553882	66.457672	24.655602
551	37	4	-0.66341273	28.148971	66.478972	27.164614
552	37	1	0.53867169	28.619564	68.897848	25.945611
553	37	2	-0.26574309	29.145744	69.501123	27.058437
554	37	2	-0.26574309	29.216468	69.467483	24.851315