Title

11100 atoms
10800 bonds
19200 angles
29700 dihedrals
4500 impropers

11 atom types
11 bond types
8 angle types
19 dihedral types
4 improper types
-10.85328817 69.14671183 xlo xhi
-9.681352973 70.31864703 ylo yhi
-8.219588995 71.78041101 zlo zhi
0.0 0.0 0.0 xy xz yz

Masses

1	12.01078
2	18.998403
3	32.0655
4	15.99943
5	14.00672
6	12.01078
7	1.007947
8	1.007947
9	1.007947
10	1.007947
11	1.007947


Pair Coeffs

1	0.10884061	3.3795318
2	0.061	3.1181455
3	0.25	3.5635949
4	0.2102061	3.0398122
5	0.16769152	3.206876
6	0.086879315	3.4806469
7	0.015779483	2.6445434
8	0.016409246	2.5832257
9	0.013106998	2.4536265
10	0.0157	1.9599772
11	0.014797445	2.4419228

Bond Coeffs

1 harmonic	287.91882093395	1.359315559786
2 harmonic	156.8711507117	1.812798632943
3 harmonic	608.035974961	1.469758533467
4 harmonic	239.8447873633	1.642019753341
5 harmonic	215.30139056395	1.533627603844
6 harmonic	357.8191474159	1.094206460752
7 harmonic	225.97114073395	1.477375101044
8 harmonic	329.26307138675	1.389502949007
9 harmonic	452.0241811971	1.373209032276
10 harmonic	386.4399368291	1.08603610657
11 harmonic	505.163639116	1.309372378949


Angle Coeffs

1 harmonic	119.7125597221	107.2128707706
2 harmonic	66.75631831595	109.9380527584
3 harmonic	124.0884341307	113.2116558678
4 harmonic	94.25109102650001	120.4494266916
5 harmonic	79.47831834420001	121.7705343867
6 harmonic	91.51855890415	108.1730591511
7 harmonic	50.901762366	124.801611398
8 harmonic	36.776637850755	108.3543135269


Dihedral Coeffs

1 fourier 1	-1.572239594429	1	180
2 fourier 1	0.316444679891	2	0
3 fourier 1	0.1426731536269	3	0
4 fourier 1	0.2057583936885	3	0
5 fourier 1	0.0985377828486	3	0
6 fourier 1	0.3215160932459	2	0
7 fourier 1	0.2510071310501	3	0
8 fourier 1	-0.1108037280545	4	180
9 fourier 1	-0.2219080374426	3	180
10 fourier 1	0.8434650381516	2	0
11 fourier 1	-0.1523281600983	1	0
12 fourier 1	1.469128273675	2	180
13 fourier 1	0.143904881748	3	0
14 fourier 1	4.626306460904	2	180
15 fourier 1	1.012490953194	2	180
16 fourier 1	1.409955177277	2	180
17 fourier 1	1.079567853188	2	180
18 fourier 1	1.601769915929	1	0
19 fourier 1	0.2279946533057	3	0


Improper Coeffs

1 5.335286357863333	-1	2
2 1.743596855104667	-1	2
3 3.374156584723333	-1	2
4 0.4187541668506667	-1	2


Atoms

1	1	1	0.53867169	-0.60692415	70.335951	11.41187
2	1	2	-0.26574303	-0.34385215	69.594116	10.29102
3	1	2	-0.26574303	-1.9298179	70.168071	11.719037
4	1	2	-0.26574303	-0.46999771	71.654859	11.069093
5	1	3	1.5785306	0.59495103	69.876242	12.858118
6	1	4	-0.66341273	1.9415438	70.350518	12.492082
7	1	4	-0.66341273	0.073761875	70.382156	14.13993
8	1	5	-0.98629526	0.85561238	68.287783	12.966257
9	1	3	1.5785306	-0.23432601	67.579136	13.895271
10	1	4	-0.66341273	0.23361001	67.785506	15.276045
11	1	4	-0.66341273	-1.5490064	68.088307	13.478543
12	1	1	0.53867169	-0.19301623	65.690141	13.550279
13	1	2	-0.26574309	-0.49541153	65.408244	12.24409
14	1	2	-0.26574309	1.0499632	65.162721	13.800797
15	1	2	-0.26574309	-1.0866713	65.01605	14.339937
16	2	1	0.53867169	0.016196808	15.756204	62.514739
17	2	2	-0.26574303	-0.33617869	16.238918	63.751163
18	2	2	-0.26574303	1.237536	15.143664	62.635441
19	2	2	-0.26574303	0.18525092	16.836841	61.689563
20	2	3	1.5785306	-1.315252	14.550827	61.839828
21	2	4	-0.66341273	-2.603251	15.265236	61.898341
22	2	4	-0.66341273	-0.7975512	14.008715	60.572882
23	2	5	-0.98629526	-1.4833853	13.356234	62.899361
24	2	3	1.5785306	-2.0937644	12.060623	62.168455
25	2	4	-0.66341273	-3.2231119	12.494971	61.330948
26	2	4	-0.66341273	-0.94085865	11.367964	61.562638
27	2	1	0.53867169	-2.8108358	10.888634	63.516698
28	2	2	-0.26574309	-1.9139616	10.658045	64.52785
29	2	2	-0.26574309	-3.9317423	11.408597	64.104528
30	2	2	-0.26574309	-3.1518167	9.6670544	62.99511
31	3	1	0.53867169	39.253469	14.596792	55.082159
32	3	2	-0.26574303	38.295455	15.487397	55.490327
33	3	2	-0.26574303	40.013704	15.213186	54.124637
34	3	2	-0.26574303	38.59915	13.562074	54.46806
35	3	3	1.5785306	40.297499	13.975353	56.568713
36	3	4	-0.66341273	39.352577	13.414581	57.550058
37	3	4	-0.66341273	41.358171	13.100727	56.042519
38	3	5	-0.98629526	40.964317	15.236017	57.306037
39	3	3	1.5785306	42.199106	14.768695	58.216357
40	3	4	-0.66341273	41.739788	13.637936	59.041314
41	3	4	-0.66341273	43.341565	14.572269	57.310066
42	3	1	0.53867169	42.657833	16.19964	59.416127
43	3	2	-0.26574309	43.095765	17.316104	58.750658
44	3	2	-0.26574309	41.587396	16.57812	60.183887
45	3	2	-0.26574309	43.657513	15.82682	60.277348
46	4	1	0.53867169	58.262529	0.25309037	13.303957
47	4	2	-0.26574303	58.980799	-0.76448672	12.737024
48	4	2	-0.26574303	59.163232	1.0794068	13.928348
49	4	2	-0.26574303	57.469883	-0.28499046	14.281887
50	4	3	1.5785306	57.217822	1.2058103	12.003142
51	4	4	-0.66341273	56.492095	0.21347033	11.194745
52	4	4	-0.66341273	56.462755	2.2456032	12.724488
53	4	5	-0.98629526	58.217044	1.9387613	10.982796
54	4	3	1.5785306	57.452226	3.1095961	10.18865
55	4	4	-0.66341273	56.104693	2.6392278	9.8269236
56	4	4	-0.66341273	57.597399	4.2964351	11.046811
57	4	1	0.53867169	58.398495	3.4453616	8.5545045
58	4	2	-0.26574309	59.710288	3.7649098	8.7911689
59	4	2	-0.26574309	58.397074	2.3386496	7.7435809
60	4	2	-0.26574309	57.83308	4.4734868	7.8481048
61	5	1	0.53867169	46.932607	49.9435	66.67603
62	5	2	-0.26574303	47.982264	49.576325	67.478828
63	5	2	-0.26574303	47.378845	50.962934	65.873938
64	5	2	-0.26574303	45.972867	50.468535	67.497463
65	5	3	1.5785306	46.248021	48.469996	65.652585
66	5	4	-0.66341273	45.965075	47.378602	66.59986
67	5	4	-0.66341273	45.173268	48.994117	64.792128
68	5	5	-0.98629526	47.427897	47.917628	64.724016
69	5	3	1.5785306	46.833591	47.04073	63.525176
70	5	4	-0.66341273	45.786729	46.153817	64.060326
71	5	4	-0.66341273	46.506915	47.99087	62.451444
72	5	1	0.53867169	48.236208	45.893631	62.882228
73	5	2	-0.26574309	49.306059	46.590328	62.383361
74	5	2	-0.26574309	48.718033	45.089269	63.884044
75	5	2	-0.26574309	47.798004	45.051007	61.892562
76	6	1	0.53867169	43.134427	25.298688	71.923389
77	6	2	-0.26574303	43.748741	24.542279	72.886953
78	6	2	-0.26574303	44.051356	25.47725	70.917978
79	6	2	-0.26574303	42.905383	26.536198	72.468638
80	6	3	1.5785306	41.511493	24.491661	71.278996
81	6	4	-0.66341273	40.64837	24.217818	72.440758
82	6	4	-0.66341273	40.990591	25.351932	70.204058
83	6	5	-0.98629526	41.854148	23.048639	70.66895
84	6	3	1.5785306	40.718527	22.590377	69.635839
85	6	4	-0.66341273	39.399836	22.905834	70.217032
86	6	4	-0.66341273	41.09539	23.187709	68.345971
87	6	1	0.53867169	40.802755	20.675266	69.431481
88	6	2	-0.26574309	42.032351	20.243344	69.00517
89	6	2	-0.26574309	40.535889	20.017304	70.607104
90	6	2	-0.26574309	39.884026	20.225005	68.518019
91	7	1	0.53867169	73.472056	62.30763	37.692566
92	7	2	-0.26574303	72.568913	62.296991	38.725977
93	7	2	-0.26574303	73.057699	63.272052	36.810868
94	7	2	-0.26574303	73.376837	61.105862	37.041712
95	7	3	1.5785306	75.260472	62.650604	38.306689
96	7	4	-0.66341273	75.640411	61.550221	39.202776
97	7	4	-0.66341273	76.070089	62.962584	37.113059
98	7	5	-0.98629526	75.228534	63.961658	39.239955
99	7	3	1.5785306	76.699739	64.59157	39.348366
100	7	4	-0.66341273	77.698827	63.517847	39.444692
101	7	4	-0.66341273	76.747761	65.53762	38.218207
102	7	1	0.53867169	76.797404	65.626583	40.963659
103	7	2	-0.26574309	75.819893	66.591072	40.991163
104	7	2	-0.26574309	76.624222	64.852614	42.080283
105	7	2	-0.26574309	78.004422	66.264353	41.081576
106	8	1	0.53867169	1.9490743	74.975348	68.093677
107	8	2	-0.26574303	3.2327473	74.526467	68.277597
108	8	2	-0.26574303	2.0197947	76.08243	67.287278
109	8	2	-0.26574303	1.4843483	75.386624	69.316258
110	8	3	1.5785306	0.8318425	73.607082	67.335849
111	8	4	-0.66341273	0.95230356	72.408757	68.187571
112	8	4	-0.66341273	-0.49867813	74.187407	67.105422
113	8	5	-0.98629526	1.4719111	73.13767	65.935512
114	8	3	1.5785306	0.33643909	72.544422	64.976463
115	8	4	-0.66341273	-0.44447158	71.570282	65.76108
116	8	4	-0.66341273	-0.30582804	73.698406	64.331708
117	8	1	0.53867169	1.2133928	71.548848	63.585906
118	8	2	-0.26574309	2.0863929	72.321672	62.860508
119	8	2	-0.26574309	1.9482255	70.509787	64.095869
120	8	2	-0.26574309	0.32441437	71.001005	62.697439
121	9	1	0.53867169	29.887519	55.165024	22.086923
122	9	2	-0.26574303	30.62675	54.066162	21.731853
123	9	2	-0.26574303	30.674272	55.914354	22.923698
124	9	2	-0.26574303	28.820219	54.709907	22.813675
125	9	3	1.5785306	29.332089	56.164846	20.542204
126	9	4	-0.66341273	28.812907	55.193758	19.568008
127	9	4	-0.66341273	28.49597	57.283287	21.009572
128	9	5	-0.98629526	30.633845	56.785865	19.836562
129	9	3	1.5785306	30.203156	57.997909	18.866316
130	9	4	-0.66341273	28.953147	57.652364	18.169425
131	9	4	-0.66341273	30.2492	59.190474	19.727424
132	9	1	0.53867169	31.569183	58.222475	17.530826
133	9	2	-0.26574309	32.799206	58.441477	18.098483
134	9	2	-0.26574309	31.685021	57.118177	16.729602
135	9	2	-0.26574309	31.324277	59.29822	16.713984
136	10	1	0.53867169	32.603889	56.34727	12.944789
137	10	2	-0.26574303	33.41229	57.221193	12.262269
138	10	2	-0.26574303	32.06389	55.477424	12.031804
139	10	2	-0.26574303	31.574759	57.085176	13.465546
140	10	3	1.5785306	33.573151	55.42129	14.31933
141	10	4	-0.66341273	34.19106	56.439443	15.184777
142	10	4	-0.66341273	32.665896	54.415612	14.897649
143	10	5	-0.98629526	34.816267	54.676561	13.646605
144	10	3	1.5785306	35.324664	53.478556	14.583392
145	10	4	-0.66341273	35.321987	53.955235	15.97579
146	10	4	-0.66341273	34.486017	52.327967	14.207549
147	10	1	0.53867169	37.143135	53.069611	14.121476
148	10	2	-0.26574309	37.268581	52.713408	12.802846
149	10	2	-0.26574309	37.96263	54.151788	14.330595
150	10	2	-0.26574309	37.633519	52.033763	14.872556
151	11	1	0.53867169	40.553961	56.8015	22.894924
152	11	2	-0.26574303	40.469527	57.740116	23.892579
153	11	2	-0.26574303	41.098728	55.667796	23.429291
154	11	2	-0.26574303	41.46668	57.271981	21.989617
155	11	3	1.5785306	38.835096	56.493473	22.056234
156	11	4	-0.66341273	38.732042	57.410498	20.910478
157	11	4	-0.66341273	38.631866	55.068903	21.749756
158	11	5	-0.98629526	37.607031	56.995668	22.967639
159	11	3	1.5785306	37.278152	55.920534	24.110506
160	11	4	-0.66341273	36.313059	55.003114	23.485639
161	11	4	-0.66341273	38.558547	55.399928	24.609745
162	11	1	0.53867169	36.399741	56.803007	25.571406
163	11	2	-0.26574309	37.212911	57.744613	26.147547
164	11	2	-0.26574309	35.259917	57.445431	25.161262
165	11	2	-0.26574309	36.047771	55.913558	26.550767
166	12	1	0.53867169	58.474169	56.480579	52.909331
167	12	2	-0.26574303	57.441797	56.60841	53.803477
168	12	2	-0.26574303	59.059458	55.259013	53.116803
169	12	2	-0.26574303	59.413538	57.413726	53.268986
170	12	3	1.5785306	57.866416	56.778083	51.084356
171	12	4	-0.66341273	57.832441	58.236957	50.879517
172	12	4	-0.66341273	58.675413	56.023526	50.112457
173	12	5	-0.98629526	56.315861	56.387959	50.864758
174	12	3	1.5785306	56.142168	54.804907	50.72032
175	12	4	-0.66341273	56.455293	54.470811	49.320865
176	12	4	-0.66341273	56.91566	54.190407	51.804795
177	12	1	0.53867169	54.295869	54.365311	51.01264
178	12	2	-0.26574309	53.87104	54.751425	52.258601
179	12	2	-0.26574309	53.479943	54.982491	50.102916
180	12	2	-0.26574309	54.078951	53.015943	50.908022
181	13	1	0.53867169	65.586238	19.794323	53.989773
182	13	2	-0.26574303	66.858349	19.368879	54.26322
183	13	2	-0.26574303	65.238142	20.668404	54.986591
184	13	2	-0.26574303	64.771919	18.702421	54.106126
185	13	3	1.5785306	65.486536	20.597339	52.24762
186	13	4	-0.66341273	65.883703	19.564884	51.273522
187	13	4	-0.66341273	64.17037	21.245639	52.111063
188	13	5	-0.98629526	66.619558	21.733203	52.161622
189	13	3	1.5785306	66.32585	22.74287	50.954394
190	13	4	-0.66341273	65.980358	21.947732	49.765472
191	13	4	-0.66341273	65.372496	23.729246	51.491771
192	13	1	0.53867169	67.937441	23.701272	50.54697
193	13	2	-0.26574309	68.382964	24.42692	51.622534
194	13	2	-0.26574309	68.952484	22.863765	50.165634
195	13	2	-0.26574309	67.738209	24.588416	49.522142
196	14	1	0.53867169	72.539544	36.941872	70.166478
197	14	2	-0.26574303	72.138515	37.493613	71.355324
198	14	2	-0.26574303	72.683368	35.596192	70.398607
199	14	2	-0.26574303	73.784933	37.424123	69.866796
200	14	3	1.5785306	71.276321	37.273371	68.754559
201	14	4	-0.66341273	71.213627	38.728898	68.540373
202	14	4	-0.66341273	71.631899	36.37089	67.649231
203	14	5	-0.98629526	69.817667	36.842637	69.276824
204	14	3	1.5785306	68.809152	36.684759	68.029032
205	14	4	-0.66341273	69.055696	37.77164	67.068539
206	14	4	-0.66341273	68.946733	35.281796	67.606621
207	14	1	0.53867169	67.010431	36.915834	68.67341
208	14	2	-0.26574309	66.674986	35.984237	69.62316
209	14	2	-0.26574309	66.834617	38.149357	69.24614
210	14	2	-0.26574309	66.092496	36.806431	67.662101
211	15	1	0.53867169	64.857883	51.911082	69.975662
212	15	2	-0.26574303	63.626914	51.32544	69.843693
213	15	2	-0.26574303	64.667702	53.271651	69.933333
214	15	2	-0.26574303	65.602713	51.575298	68.874226
215	15	3	1.5785306	65.741649	51.388302	71.597581
216	15	4	-0.66341273	65.803347	49.918432	71.619015
217	15	4	-0.66341273	66.985555	52.171521	71.65967
218	15	5	-0.98629526	64.8173	51.818147	72.835021
219	15	3	1.5785306	65.69056	51.908298	74.178329
220	15	4	-0.66341273	66.61108	50.76025	74.234471
221	15	4	-0.66341273	66.223884	53.281927	74.165115
222	15	1	0.53867169	64.501233	51.780429	75.681481
223	15	2	-0.26574309	63.54754	52.769279	75.645747
224	15	2	-0.26574309	63.840446	50.580802	75.709801
225	15	2	-0.26574309	65.174079	51.908822	76.868176
226	16	1	0.53867169	28.688042	54.593067	59.402924
227	16	2	-0.26574303	28.259385	55.796847	59.900398
228	16	2	-0.26574303	29.991255	54.732418	59.006829
229	16	2	-0.26574303	27.970202	54.355407	58.261204
230	16	3	1.5785306	28.434916	53.165288	60.687032
231	16	4	-0.66341273	27.071459	52.639222	60.504065
232	16	4	-0.66341273	29.524243	52.177005	60.595193
233	16	5	-0.98629526	28.354888	53.705664	62.201881
234	16	3	1.5785306	29.819205	53.985724	62.784448
235	16	4	-0.66341273	30.265729	52.68858	63.316908
236	16	4	-0.66341273	30.598118	54.641252	61.724234
237	16	1	0.53867169	29.666107	55.218887	64.256644
238	16	2	-0.26574309	29.167035	56.430206	63.853941
239	16	2	-0.26574309	28.831804	54.745617	65.236125
240	16	2	-0.26574309	30.871782	55.465927	64.853916
241	17	1	0.53867169	25.666356	63.044972	56.770344
242	17	2	-0.26574303	24.63603	63.143845	57.671623
243	17	2	-0.26574303	26.264997	64.275894	56.690345
244	17	2	-0.26574303	25.117121	62.800226	55.536757
245	17	3	1.5785306	26.918633	61.673765	57.262263
246	17	4	-0.66341273	26.159604	60.420551	57.394886
247	17	4	-0.66341273	28.04646	61.769204	56.316071
248	17	5	-0.98629526	27.441478	61.971698	58.749108
249	17	3	1.5785306	28.863349	61.265039	59.000316
250	17	4	-0.66341273	28.832068	59.925442	58.392134
251	17	4	-0.66341273	29.853208	62.247834	58.535433
252	17	1	0.53867169	29.086244	61.032448	60.894494
253	17	2	-0.26574309	29.125862	62.231331	61.56364
254	17	2	-0.26574309	28.045115	60.31383	61.430435
255	17	2	-0.26574309	30.23561	60.351906	61.194067
256	18	1	0.53867169	43.383121	55.575604	63.310771
257	18	2	-0.26574303	43.019013	56.897163	63.225126
258	18	2	-0.26574303	44.749608	55.52691	63.411837
259	18	2	-0.26574303	43.044791	54.979901	62.125301
260	18	3	1.5785306	42.532248	54.70634	64.797287
261	18	4	-0.66341273	41.085949	54.848847	64.598947
262	18	4	-0.66341273	43.109527	53.357339	64.892836
263	18	5	-0.98629526	42.920942	55.50138	66.141963
264	18	3	1.5785306	42.081251	54.950762	67.404618
265	18	4	-0.66341273	40.693703	55.412855	67.236118
266	18	4	-0.66341273	42.352467	53.511443	67.522769
267	18	1	0.53867169	42.732325	55.792699	69.00187
268	18	2	-0.26574309	44.044924	55.495129	69.237256
269	18	2	-0.26574309	42.625394	57.157741	68.932543
270	18	2	-0.26574309	42.017331	55.390501	70.100842
271	19	1	0.53867169	61.105857	72.008791	9.4368672
272	19	2	-0.26574303	61.68498	70.949311	10.087724
273	19	2	-0.26574303	59.837503	71.629152	9.0835172
274	19	2	-0.26574303	61.812696	72.217851	8.2812893
275	19	3	1.5785306	61.090364	73.57409	10.547174
276	19	4	-0.66341273	62.465143	73.785958	11.023854
277	19	4	-0.66341273	60.399857	74.64704	9.8091394
278	19	5	-0.98629526	60.252423	73.246183	11.878493
279	19	3	1.5785306	59.761176	74.60371	12.584646
280	19	4	-0.66341273	60.863347	75.579457	12.555698
281	19	4	-0.66341273	58.501959	74.964385	11.911134
282	19	1	0.53867169	59.361849	74.219179	14.422728
283	19	2	-0.26574309	58.400259	73.248229	14.536023
284	19	2	-0.26574309	60.4704	73.763213	15.08796
285	19	2	-0.26574309	58.907576	75.331259	15.083615
286	20	1	0.53867169	52.656851	24.901946	47.62363
287	20	2	-0.26574303	51.424136	24.369197	47.349429
288	20	2	-0.26574303	53.541818	24.409311	46.702962
289	20	2	-0.26574303	53.046274	24.425447	48.847952
290	20	3	1.5785306	52.636757	26.80913	47.577419
291	20	4	-0.66341273	51.573334	27.257164	48.490539
292	20	4	-0.66341273	54.036679	27.240856	47.74013
293	20	5	-0.98629526	52.134705	27.262723	46.135235
294	20	3	1.5785306	52.602124	28.769248	45.830808
295	20	4	-0.66341273	52.549825	29.555066	47.075138
296	20	4	-0.66341273	53.893361	28.605664	45.142002
297	20	1	0.53867169	51.345887	29.555159	44.621458
298	20	2	-0.26574309	51.349797	28.926442	43.413701
299	20	2	-0.26574309	50.065732	29.45874	45.10107
300	20	2	-0.26574309	51.60502	30.882814	44.416251
301	21	1	0.53867169	31.085513	19.914405	59.025297
302	21	2	-0.26574303	30.349786	19.458605	60.091901
303	21	2	-0.26574303	31.666644	18.817834	58.457756
304	21	2	-0.26574303	32.088213	20.696487	59.530349
305	21	3	1.5785306	29.996753	20.893457	57.783608
306	21	4	-0.66341273	29.505284	22.078307	58.506784
307	21	4	-0.66341273	30.767272	21.065991	56.542182
308	21	5	-0.98629526	28.685045	20.033114	57.44473
309	21	3	1.5785306	27.954972	20.63134	56.144247
310	21	4	-0.66341273	27.858291	22.095954	56.26214
311	21	4	-0.66341273	28.646145	20.064852	54.978008
312	21	1	0.53867169	26.165798	19.934641	56.105728
313	21	2	-0.26574309	26.165986	18.562518	56.138382
314	21	2	-0.26574309	25.423491	20.359054	57.176404
315	21	2	-0.26574309	25.499806	20.304763	54.963679
316	22	1	0.53867169	64.816341	52.863531	51.912556
317	22	2	-0.26574303	65.787072	53.120804	50.98805
318	22	2	-0.26574303	65.381079	53.007097	53.154716
319	22	2	-0.26574303	64.462876	51.546931	51.771507
320	22	3	1.5785306	63.314562	54.027886	51.673751
321	22	4	-0.66341273	62.918968	53.953896	50.256524
322	22	4	-0.66341273	62.337399	53.694096	52.71791
323	22	5	-0.98629526	63.796902	55.55645	51.865144
324	22	3	1.5785306	62.539749	56.478124	52.272482
325	22	4	-0.66341273	61.434379	56.126103	51.369438
326	22	4	-0.66341273	62.422237	56.324587	53.73045
327	22	1	0.53867169	62.985873	58.314395	51.917782
328	22	2	-0.26574309	64.173985	58.673801	52.498674
329	22	2	-0.26574309	63.117504	58.545175	50.57313
330	22	2	-0.26574309	62.029829	59.175081	52.385216
331	23	1	0.53867169	5.0970334	20.360587	27.443674
332	23	2	-0.26574303	4.9690685	19.085083	27.934818
333	23	2	-0.26574303	6.2900072	20.847869	27.919533
334	23	2	-0.26574303	4.1028982	21.112096	28.015645
335	23	3	1.5785306	5.0180674	20.407801	25.522172
336	23	4	-0.66341273	3.7721169	19.733279	25.126019
337	23	4	-0.66341273	5.257954	21.804783	25.119975
338	23	5	-0.98629526	6.2071121	19.496697	24.951828
339	23	3	1.5785306	6.5191364	19.885219	23.422353
340	23	4	-0.66341273	5.2475685	20.116103	22.717278
341	23	4	-0.66341273	7.495842	20.98314	23.495886
342	23	1	0.53867169	7.3796856	18.385117	22.569942
343	23	2	-0.26574309	8.5405117	18.014983	23.200812
344	23	2	-0.26574309	6.5739805	17.274224	22.559855
345	23	2	-0.26574309	7.7014202	18.660072	21.265206
346	24	1	0.53867169	53.084989	28.684397	51.773114
347	24	2	-0.26574303	53.311992	28.145123	53.013024
348	24	2	-0.26574303	52.008066	28.022568	51.256938
349	24	2	-0.26574303	54.178324	28.380008	51.004243
350	24	3	1.5785306	52.756119	30.574546	51.849828
351	24	4	-0.66341273	53.801875	31.151257	52.710781
352	24	4	-0.66341273	52.57432	31.038532	50.462909
353	24	5	-0.98629526	51.382499	30.805218	52.642274
354	24	3	1.5785306	50.767107	32.242758	52.28004
355	24	4	-0.66341273	51.856093	33.225276	52.181444
356	24	4	-0.66341273	49.908724	31.986156	51.107388
357	24	1	0.53867169	49.620094	32.802579	53.717899
358	24	2	-0.26574309	50.296712	32.92552	54.903727
359	24	2	-0.26574309	49.045773	34.016502	53.461037
360	24	2	-0.26574309	48.597817	31.914525	53.927417
361	25	1	0.53867169	24.016058	57.11472	71.238961
362	25	2	-0.26574303	23.481016	57.892942	72.233686
363	25	2	-0.26574303	25.380249	57.170229	71.372929
364	25	2	-0.26574303	23.711951	57.712936	70.043416
365	25	3	1.5785306	23.363338	55.306163	71.311226
366	25	4	-0.66341273	21.896932	55.37509	71.409011
367	25	4	-0.66341273	24.007437	54.562039	70.2141
368	25	5	-0.98629526	23.834195	54.644899	72.69093
369	25	3	1.5785306	23.724065	53.046083	72.610383
370	25	4	-0.66341273	22.463956	52.693262	71.93655
371	25	4	-0.66341273	25.004909	52.597466	72.031646
372	25	1	0.53867169	23.609226	52.349172	74.396148
373	25	2	-0.26574309	24.697509	52.695355	75.154858
374	25	2	-0.26574309	22.49047	52.813125	75.043621
375	25	2	-0.26574309	23.53224	50.979819	74.392729
376	26	1	0.53867169	59.770298	20.559568	18.061266
377	26	2	-0.26574303	59.593134	20.082266	19.338213
378	26	2	-0.26574303	61.120396	20.703263	17.872897
379	26	2	-0.26574303	59.223046	21.815553	18.01576
380	26	3	1.5785306	58.981681	19.388353	16.754012
381	26	4	-0.66341273	57.578325	19.179108	17.150466
382	26	4	-0.66341273	59.291239	19.930986	15.421767
383	26	5	-0.98629526	59.667344	17.94778	16.907259
384	26	3	1.5785306	59.432807	17.069601	15.587202
385	26	4	-0.66341273	58.003349	17.156549	15.238801
386	26	4	-0.66341273	60.443435	17.506144	14.609197
387	26	1	0.53867169	59.796777	15.229757	16.014214
388	26	2	-0.26574309	61.097174	15.036551	16.398855
389	26	2	-0.26574309	59.003272	14.786638	17.041657
390	26	2	-0.26574309	59.554887	14.408921	14.942892
391	27	1	0.53867169	37.837574	45.575438	62.549763
392	27	2	-0.26574303	38.988121	46.122198	62.042923
393	27	2	-0.26574303	38.187099	44.886737	63.677616
394	27	2	-0.26574303	37.393253	44.651942	61.642804
395	27	3	1.5785306	36.500101	46.929364	62.874308
396	27	4	-0.66341273	36.265123	47.642527	61.609983
397	27	4	-0.66341273	35.32196	46.304989	63.501372
398	27	5	-0.98629526	37.085924	48.137021	63.78809
399	27	3	1.5785306	36.679428	47.939191	65.326152
400	27	4	-0.66341273	35.247688	48.249607	65.416555
401	27	4	-0.66341273	37.168169	46.601448	65.686378
402	27	1	0.53867169	37.597454	49.230075	66.410079
403	27	2	-0.26574309	38.955266	49.17172	66.25289
404	27	2	-0.26574309	37.217176	50.501637	66.093903
405	27	2	-0.26574309	37.331343	49.058523	67.743011
406	28	1	0.53867169	35.560689	6.156494	41.760874
407	28	2	-0.26574303	34.274957	6.127485	42.236605
408	28	2	-0.26574303	36.126637	4.9389392	42.045307
409	28	2	-0.26574303	36.241531	7.1047676	42.479467
410	28	3	1.5785306	35.617247	6.5336114	39.877574
411	28	4	-0.66341273	34.886909	7.792542	39.645593
412	28	4	-0.66341273	37.023661	6.4416683	39.449084
413	28	5	-0.98629526	34.77674	5.4083234	39.102592
414	28	3	1.5785306	35.212708	5.3370148	37.563801
415	28	4	-0.66341273	35.371332	6.7113161	37.050939
416	28	4	-0.66341273	36.362493	4.4169196	37.542617
417	28	1	0.53867169	33.79673	4.5098329	36.565046
418	28	2	-0.26574309	33.506877	3.2565272	37.043061
419	28	2	-0.26574309	32.64369	5.2497023	36.618702
420	28	2	-0.26574309	34.133036	4.3767491	35.242929
421	29	1	0.53867169	62.774315	46.478963	28.662136
422	29	2	-0.26574303	62.09444	45.368738	29.087753
423	29	2	-0.26574303	63.97069	46.046162	28.15295
424	29	2	-0.26574303	63.065176	47.238197	29.766951
425	29	3	1.5785306	61.768098	47.483149	27.368052
426	29	4	-0.66341273	60.443177	47.746472	27.95495
427	29	4	-0.66341273	62.619109	48.598413	26.93006
428	29	5	-0.98629526	61.491303	46.553717	26.089833
429	29	3	1.5785306	61.07439	47.448683	24.824569
430	29	4	-0.66341273	60.128641	48.49061	25.258241
431	29	4	-0.66341273	62.344856	47.815318	24.174643
432	29	1	0.53867169	60.128999	46.313	23.594487
433	29	2	-0.26574309	60.898967	45.252528	23.186615
434	29	2	-0.26574309	58.989401	45.789084	24.151678
435	29	2	-0.26574309	59.746146	46.982412	22.461941
436	30	1	0.53867169	20.516109	55.076456	61.773238
437	30	2	-0.26574303	19.91452	54.361186	60.772743
438	30	2	-0.26574303	21.80537	55.348067	61.380591
439	30	2	-0.26574303	20.640459	54.231081	62.84297
440	30	3	1.5785306	19.531996	56.681719	62.249212
441	30	4	-0.66341273	18.638573	56.347537	63.367324
442	30	4	-0.66341273	20.465682	57.801423	62.478318
443	30	5	-0.98629526	18.482832	57.132678	61.119537
444	30	3	1.5785306	19.222682	57.834377	59.888859
445	30	4	-0.66341273	19.275091	59.260416	60.248351
446	30	4	-0.66341273	20.497186	57.132382	59.668775
447	30	1	0.53867169	18.146281	57.643619	58.30482
448	30	2	-0.26574309	17.981117	56.328077	57.9527
449	30	2	-0.26574309	16.896842	58.181539	58.469296
450	30	2	-0.26574309	18.722055	58.27291	57.232523
451	31	1	0.53867169	47.884154	38.076971	70.089397
452	31	2	-0.26574303	47.31071	37.130916	70.899463
453	31	2	-0.26574303	48.810968	37.435007	69.308796
454	31	2	-0.26574303	48.582911	38.920197	70.914803
455	31	3	1.5785306	46.582026	39.021568	69.03059
456	31	4	-0.66341273	45.625935	39.647641	69.959788
457	31	4	-0.66341273	47.322817	39.865377	68.07641
458	31	5	-0.98629526	45.731564	37.948017	68.207388
459	31	3	1.5785306	45.07616	38.616655	66.910558
460	31	4	-0.66341273	44.53763	39.936988	67.286172
461	31	4	-0.66341273	46.122322	38.542705	65.873079
462	31	1	0.53867169	43.598499	37.531853	66.325545
463	31	2	-0.26574309	43.99107	36.254246	66.018758
464	31	2	-0.26574309	42.622147	37.440877	67.284126
465	31	2	-0.26574309	43.014097	38.054705	65.200105
466	32	1	0.53867169	3.0546197	37.850277	15.549601
467	32	2	-0.26574303	3.4691459	38.547649	14.442519
468	32	2	-0.26574303	2.0200312	38.557205	16.100715
469	32	2	-0.26574303	4.0778649	37.918711	16.456802
470	32	3	1.5785306	2.6146883	36.011202	15.111496
471	32	4	-0.66341273	3.8795933	35.268354	14.995588
472	32	4	-0.66341273	1.6333987	35.475144	16.066803
473	32	5	-0.98629526	2.0396197	35.869291	13.610424
474	32	3	1.5785306	0.47499057	36.189089	13.570995
475	32	4	-0.66341273	-0.18557016	34.927964	13.941072
476	32	4	-0.66341273	0.26661068	37.41152	14.361427
477	32	1	0.53867169	-0.031020807	36.614344	11.767018
478	32	2	-0.26574309	0.65756001	37.705338	11.301707
479	32	2	-0.26574309	0.2072268	35.576	10.905659
480	32	2	-0.26574309	-1.3645053	36.931269	11.686975
481	33	1	0.53867169	75.30829	14.858568	6.588769
482	33	2	-0.26574303	76.614709	14.490627	6.385116
483	33	2	-0.26574303	74.918485	15.590868	5.4981339
484	33	2	-0.26574303	75.292282	15.696179	7.6737362
485	33	3	1.5785306	74.173117	13.33195	6.8611068
486	33	4	-0.66341273	74.725585	12.577862	8.0002016
487	33	4	-0.66341273	72.783933	13.822373	6.9058478
488	33	5	-0.98629526	74.339848	12.348197	5.5992812
489	33	3	1.5785306	73.056655	11.39864	5.4564369
490	33	4	-0.66341273	72.760448	10.845743	6.7868227
491	33	4	-0.66341273	72.048521	12.197518	4.737148
492	33	1	0.53867169	73.536091	9.9204409	4.3263066
493	33	2	-0.26574309	73.933258	10.338264	3.0830073
494	33	2	-0.26574309	74.580255	9.2040014	4.8588541
495	33	2	-0.26574309	72.490163	9.0521926	4.1543996
496	34	1	0.53867169	16.630241	19.994024	38.099964
497	34	2	-0.26574303	16.120261	19.907745	36.830461
498	34	2	-0.26574303	16.078042	18.994179	38.854003
499	34	2	-0.26574303	16.142619	21.165745	38.623147
500	34	3	1.5785306	18.579513	20.016811	38.120596
501	34	4	-0.66341273	19.015718	21.123726	37.255945
502	34	4	-0.66341273	19.07722	20.073025	39.506211
503	34	5	-0.98629526	19.338197	18.768225	37.436743
504	34	3	1.5785306	18.602896	17.399324	37.782063
505	34	4	-0.66341273	18.426554	17.35952	39.241133
506	34	4	-0.66341273	17.433267	17.377145	36.895025
507	34	1	0.53867169	19.748987	15.94035	37.284353
508	34	2	-0.26574309	19.970764	15.912478	35.932307
509	34	2	-0.26574309	20.972471	16.027583	37.895603
510	34	2	-0.26574309	19.205227	14.735973	37.640526
511	35	1	0.53867169	15.532863	30.869484	45.09459
512	35	2	-0.26574303	14.620696	29.850321	45.016813
513	35	2	-0.26574303	15.638655	31.199286	46.423106
514	35	2	-0.26574303	14.99686	31.952274	44.450479
515	35	3	1.5785306	17.235398	30.36767	44.351482
516	35	4	-0.66341273	17.000357	29.737618	43.041277
517	35	4	-0.66341273	18.120441	31.543231	44.416847
518	35	5	-0.98629526	17.869903	29.205599	45.262485
519	35	3	1.5785306	19.453033	29.095435	45.031495
520	35	4	-0.66341273	19.705689	29.145494	43.580942
521	35	4	-0.66341273	20.062857	30.135167	45.877819
522	35	1	0.53867169	20.068586	27.388117	45.66525
523	35	2	-0.26574309	19.817936	27.212257	47.002444
524	35	2	-0.26574309	19.472677	26.354415	44.988189
525	35	2	-0.26574309	21.421576	27.253532	45.489612
526	36	1	0.53867169	53.078303	22.038515	35.130093
527	36	2	-0.26574303	52.418823	22.406192	33.985126
528	36	2	-0.26574303	52.815733	22.967515	36.097846
529	36	2	-0.26574303	54.416909	22.1751	34.859679
530	36	3	1.5785306	52.66901	20.205235	35.631413
531	36	4	-0.66341273	53.478017	19.334885	34.755337
532	36	4	-0.66341273	52.853346	19.998677	37.076726
533	36	5	-0.98629526	51.186199	19.740123	35.197172
534	36	3	1.5785306	50.109038	20.235801	36.272273
535	36	4	-0.66341273	50.120835	19.212141	37.329645
536	36	4	-0.66341273	50.455055	21.626124	36.571426
537	36	1	0.53867169	48.366947	20.203927	35.455484
538	36	2	-0.26574309	48.011632	18.932946	35.081012
539	36	2	-0.26574309	47.392421	20.651994	36.30558
540	36	2	-0.26574309	48.327999	20.967436	34.316289
541	37	1	0.53867169	64.230394	25.044181	46.519337
542	37	2	-0.26574303	63.858914	25.610654	45.328031
543	37	2	-0.26574303	65.526047	25.415807	46.76538
544	37	2	-0.26574303	64.218006	23.684297	46.343212
545	37	3	1.5785306	63.054819	25.564175	47.944403
546	37	4	-0.66341273	61.683035	25.208292	47.535524
547	37	4	-0.66341273	63.588157	24.995275	49.191251
548	37	5	-0.98629526	63.055215	27.162004	48.077207
549	37	3	1.5785306	62.540236	27.602539	49.532971
550	37	4	-0.66341273	61.364965	26.777911	49.863534
551	37	4	-0.66341273	63.729882	27.551389	50.401349
552	37	1	0.53867169	61.936817	29.429083	49.44026
553	37	2	-0.26574309	62.891517	30.269663	48.932385
554	37	2	-0.26574309	60.83427	29.549413	48.629827
555	37	2	-0.26574309	61.578903	29.908254	50.672755