Title

12000 atoms
11700 bonds
21000 angles
31800 dihedrals
4500 impropers

11 atom types
11 bond types
8 angle types
19 dihedral types
4 improper types
0 80 xlo xhi
0 80 ylo yhi
0 80 zlo zhi
0.0 0.0 0.0 xy xz yz

Masses

1	12.01078
2	18.998403
3	32.0655
4	15.99943
5	14.00672
6	12.01078
7	1.007947
8	1.007947
9	1.007947
10	1.007947
11	1.007947


Pair Coeffs

1	0.10884061	3.3795318
2	0.061	3.1181455
3	0.25	3.5635949
4	0.2102061	3.0398122
5	0.16769152	3.206876
6	0.086879315	3.4806469
7	0.015779483	2.6445434
8	0.016409246	2.5832257
9	0.013106998	2.4536265
10	0.0157	1.9599772
11	0.014797445	2.4419228

Bond Coeffs

1 harmonic	287.91882093395	1.359315559786
2 harmonic	156.8711507117	1.812798632943
3 harmonic	608.035974961	1.469758533467
4 harmonic	239.8447873633	1.642019753341
5 harmonic	215.30139056395	1.533627603844
6 harmonic	357.8191474159	1.094206460752
7 harmonic	225.97114073395	1.477375101044
8 harmonic	329.26307138675	1.389502949007
9 harmonic	452.0241811971	1.373209032276
10 harmonic	386.4399368291	1.08603610657
11 harmonic	505.163639116	1.309372378949


Angle Coeffs

1 harmonic	119.7125597221	107.2128707706
2 harmonic	66.75631831595	109.9380527584
3 harmonic	124.0884341307	113.2116558678
4 harmonic	94.25109102650001	120.4494266916
5 harmonic	79.47831834420001	121.7705343867
6 harmonic	91.51855890415	108.1730591511
7 harmonic	50.901762366	124.801611398
8 harmonic	36.776637850755	108.3543135269


Dihedral Coeffs

1 fourier 1	-1.572239594429	1	180
2 fourier 1	0.316444679891	2	0
3 fourier 1	0.1426731536269	3	0
4 fourier 1	0.2057583936885	3	0
5 fourier 1	0.0985377828486	3	0
6 fourier 1	0.143904881748	3	0
7 fourier 1	0.3215160932459	2	0
8 fourier 1	0.2510071310501	3	0
9 fourier 1	-0.1108037280545	4	180
10 fourier 1	-0.2219080374426	3	180
11 fourier 1	0.8434650381516	2	0
12 fourier 1	-0.1523281600983	1	0
13 fourier 1	1.469128273675	2	180
14 fourier 1	4.626306460904	2	180
15 fourier 1	1.012490953194	2	180
16 fourier 1	1.409955177277	2	180
17 fourier 1	1.079567853188	2	180
18 fourier 1	1.601769915929	1	0
19 fourier 1	0.2279946533057	3	0


Improper Coeffs

1 5.335286357863333	-1	2
2 1.743596855104667	-1	2
3 3.374156584723333	-1	2
4 0.4187541668506667	-1	2


Atoms

1	1	1	0.53867169	8.3240002	68.123002	13.313
2	1	2	-0.26574303	8.168	68.014002	14.7
3	1	2	-0.26574303	8.8739997	66.946998	12.863001
4	1	2	-0.26574303	9.1719997	69.180999	13.086001
5	1	3	1.5785306	6.7570001	68.483	12.547001
6	1	4	-0.66341273	6.3150001	69.832001	13.008001
7	1	4	-0.66341273	7.0450002	68.599	11.057
8	1	5	-0.98629526	5.6110001	67.235003	12.869
9	1	3	1.5785306	4.7670001	66.901999	11.418999
10	1	4	-0.66341273	4.1939998	68.207002	10.912
11	1	4	-0.66341273	5.6770003	66.276999	10.399001
12	1	1	0.53867169	3.4110001	65.791998	11.648
13	1	2	-0.26574309	3.8789999	64.584999	12.148
14	1	2	-0.26574309	2.4079999	66.293998	12.438
15	1	2	-0.26574309	2.8710002	65.539002	10.4
16	2	1	0.53867169	8.5389996	15.521001	57.844005
17	2	2	-0.26574303	8.8800001	14.227999	57.428002
18	2	2	-0.26574303	7.1950001	15.526	58.126001
19	2	2	-0.26574303	8.8240004	16.368001	56.799002
20	2	3	1.5785306	9.5360005	15.998	59.241004
21	2	4	-0.66341273	10.956	16.083	58.790002
22	2	4	-0.66341273	9.0990001	17.413	59.594002
23	2	5	-0.98629526	9.2959994	14.92	60.566001
24	2	3	1.5785306	9.1689998	15.854	61.993999
25	2	4	-0.66341273	10.395001	16.735001	62.076001
26	2	4	-0.66341273	7.9100001	16.674999	61.988997
27	2	1	0.53867169	9.1350001	14.87	63.462005
28	2	2	-0.26574309	8.0449998	14.013	63.422003
29	2	2	-0.26574309	10.296	14.174	63.692002
30	2	2	-0.26574309	8.9460003	15.729001	64.528999
31	3	1	0.53867169	30.896001	12.970999	60.616002
32	3	2	-0.26574303	31.451001	14.2	60.995998
33	3	2	-0.26574303	30.897	12.922	59.243999
34	3	2	-0.26574303	29.613001	12.941	61.108003
35	3	3	1.5785306	31.811001	11.632	61.351004
36	3	4	-0.66341273	31.638	11.71	62.832003
37	3	4	-0.66341273	31.115999	10.358	60.892
38	3	5	-0.98629526	33.460999	11.662	60.847001
39	3	3	1.5785306	33.933997	10.059	60.484004
40	3	4	-0.66341273	33.631999	9.2060006	61.694999
41	3	4	-0.66341273	33.214002	9.5480001	59.267001
42	3	1	0.53867169	35.664001	9.9069995	60.158
43	3	2	-0.26574309	36.005001	10.702	59.073005
44	3	2	-0.26574309	36.460998	10.188	61.240001
45	3	2	-0.26574309	35.901999	8.592	59.797001
46	4	1	0.53867169	64.245005	5.7210004	9.9110001
47	4	2	-0.26574303	63.576999	6.5029997	8.962
48	4	2	-0.26574303	64.015999	6.279	11.145
49	4	2	-0.26574303	65.581999	5.758	9.5950001
50	4	3	1.5785306	63.691001	4.0310001	9.8100007
51	4	4	-0.66341273	64.101	3.4870002	8.4820002
52	4	4	-0.66341273	64.488001	3.2730001	10.862001
53	4	5	-0.98629526	61.995001	3.9180002	10.107001
54	4	3	1.5785306	61.725001	2.5760001	11.133001
55	4	4	-0.66341273	62.361002	1.367	10.484999
56	4	4	-0.66341273	62.296004	2.8210002	12.501
57	4	1	0.53867169	60.009999	2.2090001	11.351
58	4	2	-0.26574309	59.368	3.303	11.913
59	4	2	-0.26574309	59.376001	1.806	10.202
60	4	2	-0.26574309	59.923	1.169	12.260001
61	5	1	0.53867169	53.518004	48.413	65.884004
62	5	2	-0.26574303	54.460001	47.646003	66.581001
63	5	2	-0.26574303	52.368002	48.439002	66.634002
64	5	2	-0.26574303	53.304	47.789001	64.678001
65	5	3	1.5785306	54.168	50.040002	65.567999
66	5	4	-0.66341273	55.334001	49.903998	64.647002
67	5	4	-0.66341273	53.080001	50.775003	64.796996
68	5	5	-0.98629526	54.546003	50.851002	67.042999
69	5	3	1.5785306	53.998003	52.466998	66.915998
70	5	4	-0.66341273	54.605002	53.060002	65.665002
71	5	4	-0.66341273	52.497001	52.522998	66.870003
72	5	1	0.53867169	54.509001	53.478003	68.273001
73	5	2	-0.26574309	54.007001	52.955003	69.457002
74	5	2	-0.26574309	55.867	53.656001	68.352995
75	5	2	-0.26574309	53.935003	54.724002	68.097
76	6	1	0.53867169	42.119002	17.853	69.216003
77	6	2	-0.26574303	42.905002	16.817	68.697
78	6	2	-0.26574303	42.714	18.283001	70.376997
79	6	2	-0.26574303	40.875001	17.326	69.468002
80	6	3	1.5785306	41.945	19.153	68.011999
81	6	4	-0.66341273	41.178002	18.611	66.850996
82	6	4	-0.66341273	41.065001	20.207002	68.667998
83	6	5	-0.98629526	43.483005	19.802001	67.578001
84	6	3	1.5785306	43.341999	21.506002	67.516999
85	6	4	-0.66341273	42.200999	21.838	66.582003
86	6	4	-0.66341273	43.104	22.075002	68.887
87	6	1	0.53867169	44.787002	22.296	66.876001
88	6	2	-0.26574309	45.876999	21.993001	67.679
89	6	2	-0.26574309	45.049	21.996	65.561996
90	6	2	-0.26574309	44.581003	23.662002	66.957998
91	7	1	0.53867169	71.247001	62.125001	41.110001
92	7	2	-0.26574303	72.192001	63.076	40.703998
93	7	2	-0.26574303	71.214995	61.138	40.155001
94	7	2	-0.26574303	70.037003	62.771001	41.188998
95	7	3	1.5785306	71.660004	61.503	42.726002
96	7	4	-0.66341273	71.540999	62.627001	43.701
97	7	4	-0.66341273	70.567002	60.502	43.073001
98	7	5	-0.98629526	73.214998	60.756001	42.722001
99	7	3	1.5785306	73.109002	59.304004	43.621001
100	7	4	-0.66341273	72.547998	59.647999	44.983001
101	7	4	-0.66341273	72.242994	58.297	42.916999
102	7	1	0.53867169	74.679999	58.537998	43.882999
103	7	2	-0.26574309	75.258002	58.233004	42.659001
104	7	2	-0.26574309	75.537004	59.278002	44.658999
105	7	2	-0.26574309	74.449997	57.342	44.54
106	8	1	0.53867169	4.5570001	74.102998	71.245003
107	8	2	-0.26574303	5.776	73.515997	71.607003
108	8	2	-0.26574303	4.472	74.073	69.875002
109	8	2	-0.26574303	4.5809999	75.397005	71.708999
110	8	3	1.5785306	3.2090002	73.248	72.035003
111	8	4	-0.66341273	3.33	73.449998	73.509002
112	8	4	-0.66341273	1.946	73.973999	71.592002
113	8	5	-0.98629526	3.1730002	71.587	71.568003
114	8	3	1.5785306	1.5460001	71.158996	71.255999
115	8	4	-0.66341273	0.735	71.515999	72.481003
116	8	4	-0.66341273	1.028	71.869001	70.037003
117	8	1	0.53867169	1.33	69.428	70.973997
118	8	2	-0.26574309	2.085	69.038	69.877
119	8	2	-0.26574309	1.6140001	68.646002	72.066002
120	8	2	-0.26574309	0	69.225998	70.651002
121	9	1	0.53867169	21.802001	59.674001	19.785
122	9	2	-0.26574303	21.148002	60.731001	20.429001
123	9	2	-0.26574303	21.537001	59.777999	18.441
124	9	2	-0.26574303	21.285	58.509002	20.299001
125	9	3	1.5785306	23.545001	59.723001	20.145001
126	9	4	-0.66341273	23.724	59.474998	21.606002
127	9	4	-0.66341273	24.149001	58.530002	19.417999
128	9	5	-0.98629526	24.246001	61.205001	19.606001
129	9	3	1.5785306	25.738001	60.843	18.853
130	9	4	-0.66341273	26.566	60.043001	19.834
131	9	4	-0.66341273	25.525	60.081	17.575001
132	9	1	0.53867169	26.672001	62.286	18.441
133	9	2	-0.26574309	25.941	63.077998	17.566999
134	9	2	-0.26574309	27.084	63.012004	19.530001
135	9	2	-0.26574309	27.805002	61.866002	17.767
136	10	1	0.53867169	31.825001	51.875	16.33
137	10	2	-0.26574303	31.239002	51.316004	15.187
138	10	2	-0.26574303	33.153	51.524	16.33
139	10	2	-0.26574303	31.175001	51.341	17.416999
140	10	3	1.5785306	31.582	53.639002	16.341
141	10	4	-0.66341273	30.118999	53.905001	16.468999
142	10	4	-0.66341273	32.234001	54.136004	17.622999
143	10	5	-0.98629526	32.296002	54.369998	14.951
144	10	3	1.5785306	33.106999	55.789003	15.455
145	10	4	-0.66341273	32.112	56.643004	16.208
146	10	4	-0.66341273	34.294	55.455003	16.313999
147	10	1	0.53867169	33.707001	56.759	14.104
148	10	2	-0.26574309	34.601002	56.006999	13.354
149	10	2	-0.26574309	32.716	57.277999	13.307999
150	10	2	-0.26574309	34.41	57.821999	14.640001
151	11	1	0.53867169	32.132001	51.626	31.866
152	11	2	-0.26574303	32.409	50.288	31.559999
153	11	2	-0.26574303	32.555001	51.854	33.152001
154	11	2	-0.26574303	30.771	51.789002	31.761
155	11	3	1.5785306	32.918999	52.7	30.684001
156	11	4	-0.66341273	32.297001	52.457004	29.349
157	11	4	-0.66341273	32.539001	54.115005	31.097
158	11	5	-0.98629526	34.630001	52.483001	30.695999
159	11	3	1.5785306	35.362	54.026999	30.631001
160	11	4	-0.66341273	34.8	54.751	29.428
161	11	4	-0.66341273	35.105999	54.798002	31.896
162	11	1	0.53867169	37.116001	53.952999	30.421
163	11	2	-0.26574309	37.681999	53.264003	31.484001
164	11	2	-0.26574309	37.509999	53.413	29.222
165	11	2	-0.26574309	37.591999	55.251002	30.469999
166	12	1	0.53867169	63.324003	56.651001	51.326003
167	12	2	-0.26574303	63.730001	57.919998	51.756001
168	12	2	-0.26574303	62.566004	56.095004	52.326999
169	12	2	-0.26574303	64.463997	55.915999	51.107001
170	12	3	1.5785306	62.436004	56.782002	49.787002
171	12	4	-0.66341273	63.383999	57.273998	48.744998
172	12	4	-0.66341273	62.062001	55.356998	49.404998
173	12	5	-0.98629526	61.034002	57.771001	49.966002
174	12	3	1.5785306	59.740005	57.011003	49.144001
175	12	4	-0.66341273	60.188003	56.755004	47.722001
176	12	4	-0.66341273	59.346004	55.731997	49.826999
177	12	1	0.53867169	58.29	58.017001	49.060001
178	12	2	-0.26574309	57.855	58.313999	50.344005
179	12	2	-0.26574309	58.449001	59.162998	48.320003
180	12	2	-0.26574309	57.3	57.263999	48.453999
181	13	1	0.53867169	68.996	22.886	40.953002
182	13	2	-0.26574303	69.623003	23.922002	41.655998
183	13	2	-0.26574303	69.959002	21.959999	40.631003
184	13	2	-0.26574303	68.450994	23.441	39.819999
185	13	3	1.5785306	67.678003	22.193	41.930003
186	13	4	-0.66341273	66.634002	23.243999	42.111001
187	13	4	-0.66341273	67.058997	21.100001	41.069999
188	13	5	-0.98629526	68.280997	21.556001	43.415999
189	13	3	1.5785306	67.523003	20.048001	43.692002
190	13	4	-0.66341273	66.027999	20.266001	43.628001
191	13	4	-0.66341273	67.966003	19.030001	42.679
192	13	1	0.53867169	67.883005	19.375	45.286999
193	13	2	-0.26574309	69.252	19.188	45.412998
194	13	2	-0.26574309	67.392998	20.122001	46.328998
195	13	2	-0.26574309	67.288003	18.128	45.352001
196	14	1	0.53867169	74.302001	33.930001	67.867994
197	14	2	-0.26574303	73.224001	33.178	68.350997
198	14	2	-0.26574303	74.336996	33.778	66.503997
199	14	2	-0.26574303	75.439005	33.421001	68.448
200	14	3	1.5785306	74.130998	35.632	68.364997
201	14	4	-0.66341273	74.233003	35.694001	69.851999
202	14	4	-0.66341273	75.355005	36.347001	67.809
203	14	5	-0.98629526	72.672997	36.312001	67.745004
204	14	3	1.5785306	73.025999	37.879002	67.156
205	14	4	-0.66341273	73.689003	38.651001	68.274002
206	14	4	-0.66341273	73.914003	37.811	65.943999
207	14	1	0.53867169	71.582003	38.782001	66.683998
208	14	2	-0.26574309	70.913	38.097	65.679998
209	14	2	-0.26574309	70.738001	39.067001	67.727995
210	14	2	-0.26574309	72.004995	39.986	66.150002
211	15	1	0.53867169	62.107	52.150002	71.141996
212	15	2	-0.26574303	62.957001	51.051998	71.327004
213	15	2	-0.26574303	61.016002	51.972003	71.956
214	15	2	-0.26574303	61.738	52.153001	69.818001
215	15	3	1.5785306	62.979999	53.663001	71.486001
216	15	4	-0.66341273	64.060998	53.817	70.468001
217	15	4	-0.66341273	61.978002	54.782004	71.236
218	15	5	-0.98629526	63.555002	53.688998	73.112001
219	15	3	1.5785306	63.254004	55.244002	73.757005
220	15	4	-0.66341273	63.877001	56.257	72.823997
221	15	4	-0.66341273	61.778002	55.485001	73.912001
222	15	1	0.53867169	63.983002	55.485001	75.348997
223	15	2	-0.26574309	63.471999	54.553003	76.240997
224	15	2	-0.26574309	65.356002	55.453	75.342002
225	15	2	-0.26574309	63.597999	56.736002	75.794001
226	16	1	0.53867169	25.236001	53.601003	64.127998
227	16	2	-0.26574303	24.686	54.770002	64.668999
228	16	2	-0.26574303	24.349	52.578998	64.361
229	16	2	-0.26574303	26.424999	53.376999	64.779
230	16	3	1.5785306	25.578001	53.830004	62.395
231	16	4	-0.66341273	26.641002	54.87	62.266002
232	16	4	-0.66341273	26.185	52.516999	61.918998
233	16	5	-0.98629526	24.136	54.206004	61.526003
234	16	3	1.5785306	24.143	53.304	60.073004
235	16	4	-0.66341273	25.440001	53.599	59.354
236	16	4	-0.66341273	24.000001	51.834002	60.352001
237	16	1	0.53867169	22.828	53.749003	58.978
238	16	2	-0.26574309	21.608999	53.530998	59.603
239	16	2	-0.26574309	22.911	55.034003	58.502002
240	16	2	-0.26574309	22.892001	52.897	57.89
241	17	1	0.53867169	22.451999	68.724999	60.834002
242	17	2	-0.26574303	22.941999	69.238997	62.041001
243	17	2	-0.26574303	22.335	67.363997	60.978999
244	17	2	-0.26574303	23.371	69.038	59.861002
245	17	3	1.5785306	20.906	69.504995	60.418
246	17	4	-0.66341273	21.171	70.950994	60.160003
247	17	4	-0.66341273	20.479	68.891997	59.092002
248	17	5	-0.98629526	19.726	69.228997	61.645002
249	17	3	1.5785306	18.243001	68.849998	60.880003
250	17	4	-0.66341273	17.931999	69.963999	59.906001
251	17	4	-0.66341273	18.324	67.523003	60.179
252	17	1	0.53867169	16.888001	68.751998	62.011003
253	17	2	-0.26574309	17.139	67.764997	62.953
254	17	2	-0.26574309	16.583999	69.944	62.618999
255	17	2	-0.26574309	15.776	68.358002	61.287999
256	18	1	0.53867169	39.273999	54.710999	68.638
257	18	2	-0.26574303	39.486001	54.186001	69.917998
258	18	2	-0.26574303	39.601002	56.044998	68.676004
259	18	2	-0.26574303	37.942002	54.54	68.348999
260	18	3	1.5785306	40.230999	53.806	67.439003
261	18	4	-0.66341273	39.71	52.408004	67.389998
262	18	4	-0.66341273	39.912	54.442	66.093001
263	18	5	-0.98629526	41.916003	53.902001	67.792997
264	18	3	1.5785306	42.751999	54.173999	66.325998
265	18	4	-0.66341273	42.345004	53.085999	65.358
266	18	4	-0.66341273	42.441001	55.535998	65.774002
267	18	1	0.53867169	44.507999	54.081001	66.504998
268	18	2	-0.26574309	44.934001	55.037999	67.414999
269	18	2	-0.26574309	44.966998	52.835002	66.853995
270	18	2	-0.26574309	45.064998	54.401002	65.278997
271	19	1	0.53867169	56.841998	76.364999	9.2399997
272	19	2	-0.26574303	55.629001	77.027001	9.012
273	19	2	-0.26574303	57.814999	77.321997	9.3940002
274	19	2	-0.26574303	57.088003	75.585999	8.1339997
275	19	3	1.5785306	56.699004	75.297995	10.658001
276	19	4	-0.66341273	55.712004	74.225998	10.335001
277	19	4	-0.66341273	58.055	74.620004	10.800999
278	19	5	-0.98629526	56.299	76.199999	12.073001
279	19	3	1.5785306	57.259998	75.620003	13.363
280	19	4	-0.66341273	57.049999	74.124999	13.455
281	19	4	-0.66341273	58.709998	75.950994	13.145001
282	19	1	0.53867169	56.806002	76.307001	14.927
283	19	2	-0.26574309	56.946001	77.686996	14.886
284	19	2	-0.26574309	55.547004	75.955	15.344
285	19	2	-0.26574309	57.704	75.829	15.864
286	20	1	0.53867169	49.686999	22.973001	47.406001
287	20	2	-0.26574303	48.575001	22.130001	47.287998
288	20	2	-0.26574303	50.812001	22.184999	47.372003
289	20	2	-0.26574303	49.576001	23.618	48.614001
290	20	3	1.5785306	49.667001	24.196	46.111999
291	20	4	-0.66341273	48.476005	25.072	46.319003
292	20	4	-0.66341273	50.897002	25.063	46.345
293	20	5	-0.98629526	49.712005	23.45	44.556999
294	20	3	1.5785306	50.811	24.326	43.580003
295	20	4	-0.66341273	50.387001	25.777001	43.601003
296	20	4	-0.66341273	52.220001	24.165001	44.078002
297	20	1	0.53867169	50.799999	23.805001	41.890998
298	20	2	-0.26574309	51.148	22.464001	41.816001
299	20	2	-0.26574309	49.612002	24.038999	41.244001
300	20	2	-0.26574309	51.782002	24.523001	41.231999
301	21	1	0.53867169	27.153001	21.263001	60.911002
302	21	2	-0.26574303	26.066999	22.123001	61.114001
303	21	2	-0.26574303	26.657	20.070999	60.442004
304	21	2	-0.26574303	27.766001	21.094999	62.130003
305	21	3	1.5785306	28.322001	22.007	59.791999
306	21	4	-0.66341273	28.889	23.22	60.451999
307	21	4	-0.66341273	29.459999	21.004	59.660001
308	21	5	-0.98629526	27.591999	22.330999	58.263001
309	21	3	1.5785306	28.694999	21.868	57.04
310	21	4	-0.66341273	30.002	22.577999	57.308002
311	21	4	-0.66341273	28.881001	20.377002	57.020001
312	21	1	0.53867169	28.167999	22.341001	55.419998
313	21	2	-0.26574309	26.948001	21.744001	55.134997
314	21	2	-0.26574309	28.104	23.699	55.230002
315	21	2	-0.26574309	29.093001	21.838	54.523001
316	22	1	0.53867169	64.598999	60.160003	53.958001
317	22	2	-0.26574303	65.819001	60.292001	54.633999
318	22	2	-0.26574303	64.093003	61.422	53.765001
319	22	2	-0.26574303	63.771	59.417	54.765
320	22	3	1.5785306	64.837999	59.276004	52.431002
321	22	4	-0.66341273	65.265999	57.884002	52.763
322	22	4	-0.66341273	63.459001	59.173002	51.795001
323	22	5	-0.98629526	65.943003	60.109	51.401
324	22	3	1.5785306	65.316	60.071998	49.810004
325	22	4	-0.66341273	65.049005	58.625998	49.456
326	22	4	-0.66341273	64.063005	60.896001	49.706001
327	22	1	0.53867169	66.447001	60.703001	48.607001
328	22	2	-0.26574309	66.755996	62.021999	48.907003
329	22	2	-0.26574309	67.587996	59.952002	48.469005
330	22	2	-0.26574309	65.795999	60.699	47.387004
331	23	1	0.53867169	7.3019999	14.546	25.260999
332	23	2	-0.26574303	8.0249995	13.537	25.911
333	23	2	-0.26574303	7.3320001	14.277	23.914001
334	23	2	-0.26574303	7.9330003	15.735	25.538001
335	23	3	1.5785306	5.6450003	14.624	25.906999
336	23	4	-0.66341273	5.7240003	15.045999	27.337
337	23	4	-0.66341273	4.962	15.756	25.152001
338	23	5	-0.98629526	4.8189998	13.128	25.674
339	23	3	1.5785306	3.2320002	13.475001	25.139999
340	23	4	-0.66341273	2.6070002	14.420999	26.140001
341	23	4	-0.66341273	3.247	14.075	23.762
342	23	1	0.53867169	2.1989998	12.042	25.065
343	23	2	-0.26574309	2.7470002	11.121	24.184
344	23	2	-0.26574309	1.956	11.466	26.287
345	23	2	-0.26574309	0.98099999	12.438	24.542
346	24	1	0.53867169	54.951	31.859	51.974998
347	24	2	-0.26574303	53.958001	31.65	51.009998
348	24	2	-0.26574303	54.432998	31.489	53.192
349	24	2	-0.26574303	55.253	33.200002	51.956
350	24	3	1.5785306	56.419997	30.946	51.549001
351	24	4	-0.66341273	56.967001	31.513002	50.281
352	24	4	-0.66341273	57.431002	31.260002	52.644
353	24	5	-0.98629526	56.093001	29.254999	51.464
354	24	3	1.5785306	57.375998	28.427	52.234001
355	24	4	-0.66341273	58.667002	28.88	51.589999
356	24	4	-0.66341273	57.382998	28.700001	53.712001
357	24	1	0.53867169	57.284002	26.673	52.037001
358	24	2	-0.26574309	56.096001	26.206	52.581
359	24	2	-0.26574309	57.427001	26.250999	50.738001
360	24	2	-0.26574309	58.318	26.120002	52.77
361	25	1	0.53867169	22.395999	62.147999	74.836998
362	25	2	-0.26574303	22.368	60.917001	75.502996
363	25	2	-0.26574303	23.68	62.352004	74.392996
364	25	2	-0.26574303	22.034001	63.108001	75.750999
365	25	3	1.5785306	21.204002	62.154999	73.513002
366	25	4	-0.66341273	19.841999	62.056003	74.115
367	25	4	-0.66341273	21.305001	63.534002	72.876
368	25	5	-0.98629526	21.545	60.910001	72.369003
369	25	3	1.5785306	21.35	61.563001	70.800004
370	25	4	-0.66341273	19.965999	62.165999	70.723
371	25	4	-0.66341273	22.407	62.592001	70.511003
372	25	1	0.53867169	21.459	60.342999	69.526
373	25	2	-0.26574309	22.702	59.73	69.573998
374	25	2	-0.26574309	20.451	59.411001	69.559999
375	25	2	-0.26574309	21.372001	61.004004	68.313003
376	26	1	0.53867169	64.373999	16.159	13.538001
377	26	2	-0.26574303	65.726995	16.517999	13.517001
378	26	2	-0.26574303	64.291	14.83	13.200001
379	26	2	-0.26574303	63.736	16.943001	12.606
380	26	3	1.5785306	63.673	16.504999	15.138
381	26	4	-0.66341273	63.700004	17.983	15.347
382	26	4	-0.66341273	62.209001	16.1	15.042
383	26	5	-0.98629526	64.488997	15.62	16.372999
384	26	3	1.5785306	63.310003	14.987	17.438999
385	26	4	-0.66341273	62.452998	16.14	17.913001
386	26	4	-0.66341273	62.477002	13.937	16.759001
387	26	1	0.53867169	64.011002	14.234999	18.877001
388	26	2	-0.26574309	64.838996	13.188	18.497
389	26	2	-0.26574309	64.677	15.113	19.696
390	26	2	-0.26574309	62.969003	13.692001	19.607999
391	27	1	0.53867169	36.487999	51.103001	63.085999
392	27	2	-0.26574303	37.237999	52.259998	63.329
393	27	2	-0.26574303	36.390998	50.950003	61.724
394	27	2	-0.26574303	35.249	51.303	63.646998
395	27	3	1.5785306	37.247002	49.703002	63.882003
396	27	4	-0.66341273	37.185001	49.917998	65.357003
397	27	4	-0.66341273	36.346002	48.515	63.571
398	27	5	-0.98629526	38.847001	49.448004	63.287997
399	27	3	1.5785306	39.057999	47.769003	63.038001
400	27	4	-0.66341273	38.716998	47.065001	64.331999
401	27	4	-0.66341273	38.193002	47.280002	61.91
402	27	1	0.53867169	40.723	47.335	62.632999
403	27	2	-0.26574309	41.102004	47.986002	61.466999
404	27	2	-0.26574309	41.622005	47.576003	63.643003
405	27	2	-0.26574309	40.743999	45.977001	62.373004
406	28	1	0.53867169	30.033002	14.457	34.528999
407	28	2	-0.26574303	31.344001	13.968	34.587002
408	28	2	-0.26574303	29.251001	13.483	33.958001
409	28	2	-0.26574303	30.06	15.587	33.747001
410	28	3	1.5785306	29.478002	14.914	36.158001
411	28	4	-0.66341273	30.313001	16.059	36.627998
412	28	4	-0.66341273	28.062999	15.446	35.977001
413	28	5	-0.98629526	29.506001	13.558	37.223001
414	28	3	1.5785306	28.066001	13.578	38.146999
415	28	4	-0.66341273	27.966001	14.934	38.811002
416	28	4	-0.66341273	26.868	13.309001	37.280998
417	28	1	0.53867169	28.053	12.366999	39.433999
418	28	2	-0.26574309	28.180001	11.1	38.88
419	28	2	-0.26574309	29.003	12.574	40.402999
420	28	2	-0.26574309	26.814001	12.428001	40.044999
421	29	1	0.53867169	59.872003	37.067001	25.701001
422	29	2	-0.26574303	58.520999	37.084	25.333002
423	29	2	-0.26574303	60.608001	37.419	24.596002
424	29	2	-0.26574303	60.165	35.785	26.099002
425	29	3	1.5785306	60.143003	38.159001	27.082002
426	29	4	-0.66341273	59.401002	37.615001	28.257
427	29	4	-0.66341273	61.626	38.048999	27.408001
428	29	5	-0.98629526	59.707999	39.779999	26.682
429	29	3	1.5785306	60.918999	40.820999	27.296
430	29	4	-0.66341273	61.073003	40.526004	28.771
431	29	4	-0.66341273	62.217999	40.626001	26.566
432	29	1	0.53867169	60.499001	42.532001	27.148001
433	29	2	-0.26574309	60.310001	42.849002	25.810001
434	29	2	-0.26574309	59.411001	42.905002	27.898002
435	29	2	-0.26574309	61.584001	43.263001	27.596002
436	30	1	0.53867169	14.450001	55.883002	55.833001
437	30	2	-0.26574303	15.208	56.487002	54.822001
438	30	2	-0.26574303	15.307001	55.554004	56.854
439	30	2	-0.26574303	13.879	54.756999	55.289001
440	30	3	1.5785306	13.146	56.977	56.356001
441	30	4	-0.66341273	12.208999	57.164001	55.209999
442	30	4	-0.66341273	12.380999	56.219001	57.433
443	30	5	-0.98629526	13.790001	58.455005	56.969004
444	30	3	1.5785306	12.927001	58.862	58.389001
445	30	4	-0.66341273	11.455001	58.877997	58.042998
446	30	4	-0.66341273	13.214	57.881002	59.492002
447	30	1	0.53867169	13.334	60.465999	59.01
448	30	2	-0.26574309	14.687999	60.518003	59.311004
449	30	2	-0.26574309	12.979001	61.493001	58.171
450	30	2	-0.26574309	12.641	60.637002	60.195003
451	31	1	0.53867169	52.562003	39.546001	70.574999
452	31	2	-0.26574303	53.414001	38.686001	71.278
453	31	2	-0.26574303	52.692003	39.259	69.238
454	31	2	-0.26574303	52.975001	40.829	70.844002
455	31	3	1.5785306	50.889001	39.360001	71.156998
456	31	4	-0.66341273	50.838003	39.817002	72.577004
457	31	4	-0.66341273	50.058999	40.346003	70.346003
458	31	5	-0.98629526	50.334001	37.742	70.931997
459	31	3	1.5785306	48.734002	37.807999	70.33
460	31	4	-0.66341273	47.921004	38.657002	71.280999
461	31	4	-0.66341273	48.707004	38.375001	68.938003
462	31	1	0.53867169	47.958999	36.222	70.253997
463	31	2	-0.26574309	48.688002	35.388	69.418998
464	31	2	-0.26574309	47.764001	35.638001	71.481004
465	31	2	-0.26574309	46.715002	36.398997	69.675002
466	32	1	0.53867169	0.964	27.423999	14.035
467	32	2	-0.26574303	1.821	26.485002	13.448
468	32	2	-0.26574303	0.070000002	26.737001	14.819001
469	32	2	-0.26574303	0.32000002	28.075001	13.011
470	32	3	1.5785306	1.9069999	28.620002	14.957
471	32	4	-0.66341273	2.7470002	29.391	13.994001
472	32	4	-0.66341273	0.88700004	29.593999	15.53
473	32	5	-0.98629526	2.8169999	27.858	16.208
474	32	3	1.5785306	2.678	28.811002	17.622
475	32	4	-0.66341273	3.098	30.220001	17.268
476	32	4	-0.66341273	1.2730001	28.781002	18.153999
477	32	1	0.53867169	3.7349999	28.264999	18.93
478	32	2	-0.26574309	3.416	26.959	19.27
479	32	2	-0.26574309	5.0739998	28.385	18.65
480	32	2	-0.26574309	3.468	29.056001	20.033002
481	33	1	0.53867169	74.74	12.661999	10.172
482	33	2	-0.26574303	74.712996	12.429	11.553
483	33	2	-0.26574303	76.051002	12.608	9.7670001
484	33	2	-0.26574303	74.212999	13.915	9.9659997
485	33	3	1.5785306	73.711996	11.475	9.332
486	33	4	-0.66341273	72.297997	11.706001	9.7500002
487	33	4	-0.66341273	73.797998	11.83	7.8540003
488	33	5	-0.98629526	74.263	9.8669994	9.6219999
489	33	3	1.5785306	74.210997	9.012	8.1409997
490	33	4	-0.66341273	72.809	9.1379994	7.5879997
491	33	4	-0.66341273	75.225997	9.5520002	7.173
492	33	1	0.53867169	74.544997	7.2859997	8.3269995
493	33	2	-0.26574309	75.810995	7.1139997	8.8679999
494	33	2	-0.26574309	73.601999	6.6140002	9.0640002
495	33	2	-0.26574309	74.558001	6.7300004	7.0609999
496	34	1	0.53867169	13.496001	16.952999	36.637001
497	34	2	-0.26574303	13.657	16.281	35.418999
498	34	2	-0.26574303	12.907	16.08	37.519002
499	34	2	-0.26574303	12.681	18.033001	36.395001
500	34	3	1.5785306	15.069001	17.555001	37.216001
501	34	4	-0.66341273	15.556	18.584	36.250999
502	34	4	-0.66341273	14.777001	18.278999	38.522999
503	34	5	-0.98629526	16.178	16.255	37.455001
504	34	3	1.5785306	17.002001	16.524999	38.929
505	34	4	-0.66341273	17.613001	17.907	38.867002
506	34	4	-0.66341273	16.068001	16.396999	40.099001
507	34	1	0.53867169	18.324	15.383	39.200001
508	34	2	-0.26574309	17.823	14.09	39.229999
509	34	2	-0.26574309	19.347999	15.491	38.291001
510	34	2	-0.26574309	18.85	15.649999	40.451999
511	35	1	0.53867169	11.37	27.226999	47.242999
512	35	2	-0.26574303	12.375001	26.614001	46.483002
513	35	2	-0.26574303	11.981	27.898002	48.273997
514	35	2	-0.26574303	10.560001	26.225002	47.720003
515	35	3	1.5785306	10.392001	28.299	46.210999
516	35	4	-0.66341273	9.677	27.454002	45.209999
517	35	4	-0.66341273	9.3290007	28.892	47.126002
518	35	5	-0.98629526	11.367	29.533002	45.502
519	35	3	1.5785306	10.512	31.011	45.606999
520	35	4	-0.66341273	9.1540003	30.801001	44.974999
521	35	4	-0.66341273	10.382	31.457002	47.035999
522	35	1	0.53867169	11.298001	32.326999	44.728003
523	35	2	-0.26574309	12.568001	32.537999	45.244999
524	35	2	-0.26574309	11.348	32.137001	43.369002
525	35	2	-0.26574309	10.562	33.474998	44.959998
526	36	1	0.53867169	54.957004	20.125	33.641999
527	36	2	-0.26574303	53.858004	19.84	32.821999
528	36	2	-0.26574303	54.586	21.131001	34.500999
529	36	2	-0.26574303	55.978003	20.534	32.818999
530	36	3	1.5785306	55.479002	18.652	34.497001
531	36	4	-0.66341273	55.978003	17.679001	33.481998
532	36	4	-0.66341273	56.680002	19.068	35.337002
533	36	5	-0.98629526	54.21	18.029	35.485001
534	36	3	1.5785306	54.885001	17.57	36.988997
535	36	4	-0.66341273	56.027999	16.620001	36.708999
536	36	4	-0.66341273	55.356002	18.773	37.757001
537	36	1	0.53867169	53.738999	16.715	38.027999
538	36	2	-0.26574309	52.648001	17.531999	38.287997
539	36	2	-0.26574309	53.334002	15.501001	37.528999
540	36	2	-0.26574309	54.374003	16.478001	39.234002
541	37	1	0.53867169	61.398001	26.87	48.587003
542	37	2	-0.26574303	60.220003	26.509001	47.921004
543	37	2	-0.26574303	61.064	27.184999	49.881001
544	37	2	-0.26574303	61.911998	27.962999	47.932
545	37	3	1.5785306	62.585998	25.546	48.488002
546	37	4	-0.66341273	62.971001	25.374	47.056999
547	37	4	-0.66341273	63.821998	26.048	49.221001
548	37	5	-0.98629526	61.969004	24.108	49.214001
549	37	3	1.5785306	63.217001	23.410001	50.153003
550	37	4	-0.66341273	64.419999	23.23	49.256001
551	37	4	-0.66341273	63.547001	24.275999	51.337004
552	37	1	0.53867169	62.795	21.814001	50.785999
553	37	2	-0.26574309	61.669998	21.916001	51.589999
554	37	2	-0.26574309	62.618003	20.860002	49.815001
555	37	2	-0.26574309	63.842001	21.400001	51.589999
556	38	1	0.53867169	5.9600002	60.988998	2.649
557	38	2	-0.26574303	7.022	60.226002	2.1489999
558	38	2	-0.26574303	4.8879999	60.146999	2.8200001
559	38	2	-0.26574303	5.6820005	61.953998	1.7120001
560	38	3	1.5785306	6.444	61.796002	4.1609997
561	38	4	-0.66341273	7.5240004	62.775002	3.8390002
562	38	4	-0.66341273	5.2319998	62.605	4.6020001
563	38	5	-0.98629526	6.8959999	60.640998	5.3600001
564	38	3	1.5785306	6.2110001	61.127	6.85
565	38	4	-0.66341273	6.645	62.550998	7.112
566	38	4	-0.66341273	4.7119999	61.015	6.8150002
567	38	1	0.53867169	6.7670006	60.153003	8.2169998
568	38	2	-0.26574309	6.4250004	58.824	8.01
569	38	2	-0.26574309	8.1090003	60.276999	8.4790003
570	38	2	-0.26574309	6.081	60.584998	9.3380004
571	39	1	0.53867169	74.254999	60.784001	14.495
572	39	2	-0.26574303	75.482001	60.400004	15.051
573	39	2	-0.26574303	74.375	60.702	13.128999
574	39	2	-0.26574303	74.022002	62.079	14.891
575	39	3	1.5785306	72.946997	59.756999	15.131
576	39	4	-0.66341273	72.821999	60.018001	16.594999
577	39	4	-0.66341273	71.668997	60.27	14.481
578	39	5	-0.98629526	73.221998	58.098001	14.747
579	39	3	1.5785306	71.738	57.419	14.234999
580	39	4	-0.66341273	70.713997	57.683001	15.316
581	39	4	-0.66341273	71.303	58.006001	12.921
582	39	1	0.53867169	71.820002	55.667	14.012001
583	39	2	-0.26574309	72.775002	55.365005	13.052
584	39	2	-0.26574309	72.054	54.969001	15.171
585	39	2	-0.26574309	70.595002	55.256	13.519
586	40	1	0.53867169	30.502002	18.725001	66.915002