Title

12900 atoms
12600 bonds
22800 angles
35700 dihedrals
4500 impropers

11 atom types
11 bond types
8 angle types
22 dihedral types
4 improper types
-9.241426587 70.75857341 xlo xhi
-8.907144666 71.09285533 ylo yhi
-4.081022143 75.91897786 zlo zhi
0.0 0.0 0.0 xy xz yz

Masses

1	12.01078
2	18.998403
3	32.0655
4	15.99943
5	14.00672
6	12.01078
7	1.007947
8	1.007947
9	1.007947
10	1.007947
11	1.007947


Pair Coeffs

1	0.10884061	3.3795318
2	0.061	3.1181455
3	0.25	3.5635949
4	0.2102061	3.0398122
5	0.16769152	3.206876
6	0.086879315	3.4806469
7	0.015779483	2.6445434
8	0.016409246	2.5832257
9	0.013106998	2.4536265
10	0.0157	1.9599772
11	0.014797445	2.4419228

Bond Coeffs

1 harmonic	287.91882093395	1.359315559786
2 harmonic	156.8711507117	1.812798632943
3 harmonic	608.035974961	1.469758533467
4 harmonic	239.8447873633	1.642019753341
5 harmonic	215.30139056395	1.533627603844
6 harmonic	357.8191474159	1.094206460752
7 harmonic	225.97114073395	1.477375101044
8 harmonic	329.26307138675	1.389502949007
9 harmonic	452.0241811971	1.373209032276
10 harmonic	386.4399368291	1.08603610657
11 harmonic	505.163639116	1.309372378949


Angle Coeffs

1 harmonic	119.7125597221	107.2128707706
2 harmonic	66.75631831595	109.9380527584
3 harmonic	124.0884341307	113.2116558678
4 harmonic	94.25109102650001	120.4494266916
5 harmonic	79.47831834420001	121.7705343867
6 harmonic	91.51855890415	108.1730591511
7 harmonic	50.901762366	124.801611398
8 harmonic	36.776637850755	108.3543135269


Dihedral Coeffs

1 fourier 1	-1.572239594429	1	180
2 fourier 1	0.316444679891	2	0
3 fourier 1	0.1426731536269	3	0
4 fourier 1	0.2057583936885	3	0
5 fourier 1	0.0985377828486	3	0
6 fourier 1	0.3549667638131	3	0
7 fourier 1	0.2399307824079	2	180
8 fourier 1	0.9156101580834	1	180
9 fourier 1	0.143904881748	3	0
10 fourier 1	0.3215160932459	2	0
11 fourier 1	0.2510071310501	3	0
12 fourier 1	-0.1108037280545	4	180
13 fourier 1	-0.2219080374426	3	180
14 fourier 1	0.8434650381516	2	0
15 fourier 1	-0.1523281600983	1	0
16 fourier 1	1.469128273675	2	180
17 fourier 1	4.626306460904	2	180
18 fourier 1	1.012490953194	2	180
19 fourier 1	1.409955177277	2	180
20 fourier 1	1.079567853188	2	180
21 fourier 1	1.601769915929	1	0
22 fourier 1	0.2279946533057	3	0


Improper Coeffs

1 5.335286357863333	-1	2
2 1.743596855104667	-1	2
3 3.374156584723333	-1	2
4 0.4187541668506667	-1	2


Atoms

1	1	1	0.53867169	4.3383709	63.928699	18.215188
2	1	2	-0.26574303	5.6161445	63.56894	17.863468
3	1	2	-0.26574303	4.1584945	65.24466	17.880361
4	1	2	-0.26574303	4.3053937	63.890538	19.587028
5	1	3	1.5785306	3.0091843	62.723804	17.459631
6	1	4	-0.66341273	2.8982434	61.592479	18.39801
7	1	4	-0.66341273	1.7653568	63.44687	17.157565
8	1	5	-0.98629526	3.5246783	61.96876	16.130062
9	1	3	1.5785306	3.4728381	62.944069	14.869353
10	1	4	-0.66341273	2.0961379	62.893124	14.358222
11	1	4	-0.66341273	4.0772045	64.211535	15.295278
12	1	1	0.53867169	4.6196312	62.19039	13.517365
13	1	2	-0.26574309	5.9066612	62.030444	13.97205
14	1	2	-0.26574309	4.2065087	60.941191	13.125134
15	1	2	-0.26574309	4.6837917	62.967267	12.391375
16	2	1	0.53867169	5.0182712	10.875338	60.989442
17	2	2	-0.26574303	5.4758859	11.056938	62.270541
18	2	2	-0.26574303	5.9650403	10.135453	60.332713
19	2	2	-0.26574303	4.9844709	12.105138	60.389032
20	2	3	1.5785306	3.2917765	10.038335	60.938735
21	2	4	-0.66341273	2.4505693	10.752742	61.91072
22	2	4	-0.66341273	2.9050362	9.9699235	59.51756
23	2	5	-0.98629526	3.4525517	8.5483134	61.499772
24	2	3	1.5785306	2.2275978	7.6347005	61.013279
25	2	4	-0.66341273	0.97931653	8.4090018	61.091981
26	2	4	-0.66341273	2.6692957	7.094031	59.714189
27	2	1	0.53867169	2.0589599	6.1461323	62.220907
28	2	2	-0.26574309	3.2144094	5.4096538	62.283926
29	2	2	-0.26574309	1.7650248	6.546936	63.499217
30	2	2	-0.26574309	1.0600076	5.2914762	61.830158
31	3	1	0.53867169	32.249174	15.139217	68.738089
32	3	2	-0.26574303	31.335094	15.959835	68.130388
33	3	2	-0.26574303	31.700704	13.892257	68.849349
34	3	2	-0.26574303	32.373784	15.596991	70.023718
35	3	3	1.5785306	33.969779	15.165107	67.833004
36	3	4	-0.66341273	34.724667	16.30437	68.382716
37	3	4	-0.66341273	34.64824	13.862711	67.933841
38	3	5	-0.98629526	33.879011	15.606689	66.291676
39	3	3	1.5785306	33.341753	14.401077	65.380883
40	3	4	-0.66341273	34.535809	13.609327	65.057321
41	3	4	-0.66341273	32.226079	13.790648	66.114864
42	3	1	0.53867169	32.643445	15.143067	63.742967
43	3	2	-0.26574309	31.592293	15.976075	64.000459
44	3	2	-0.26574309	33.58016	15.882602	63.064346
45	3	2	-0.26574309	32.18055	14.191663	62.874169
46	4	1	0.53867169	57.860765	1.018467	9.9203104
47	4	2	-0.26574303	57.576656	-0.12444921	10.62575
48	4	2	-0.26574303	57.407484	0.80341466	8.6441475
49	4	2	-0.26574303	59.229422	1.0769713	9.8443878
50	4	3	1.5785306	57.099166	2.6014605	10.731531
51	4	4	-0.66341273	57.560334	2.6272467	12.129287
52	4	4	-0.66341273	57.380872	3.7362042	9.8387027
53	4	5	-0.98629526	55.511699	2.417687	10.816568
54	4	3	1.5785306	54.792867	3.8339135	11.037718
55	4	4	-0.66341273	55.585179	4.6711788	11.955745
56	4	4	-0.66341273	54.488001	4.3519333	9.6920329
57	4	1	0.53867169	53.101845	3.5336006	11.900582
58	4	2	-0.26574309	52.240591	2.815327	11.112137
59	4	2	-0.26574309	53.241143	2.8620112	13.086714
60	4	2	-0.26574309	52.478147	4.7245327	12.183048
61	5	1	0.53867169	51.745644	48.476415	68.695045
62	5	2	-0.26574303	52.739067	47.607622	68.324995
63	5	2	-0.26574303	52.179999	49.74659	68.424582
64	5	2	-0.26574303	51.646585	48.409128	70.06021
65	5	3	1.5785306	50.05229	48.021574	67.86171
66	5	4	-0.66341273	49.563365	46.796675	68.519316
67	5	4	-0.66341273	49.156041	49.19086	67.887235
68	5	5	-0.98629526	50.232129	47.490563	66.349297
69	5	3	1.5785306	50.26371	48.711152	65.315032
70	5	4	-0.66341273	48.864298	49.10347	65.088177
71	5	4	-0.66341273	51.207199	49.697928	65.859594
72	5	1	0.53867169	50.972967	48.079977	63.642259
73	5	2	-0.26574309	52.255435	47.614603	63.781343
74	5	2	-0.26574309	50.227985	47.048359	63.128786
75	5	2	-0.26574309	51.000648	49.074926	62.699037
76	6	1	0.53867169	46.912885	19.925551	70.14987
77	6	2	-0.26574303	47.263651	19.45493	68.909822
78	6	2	-0.26574303	48.036757	19.874843	70.934882
79	6	2	-0.26574303	46.012535	19.032968	70.675941
80	6	3	1.5785306	46.178613	21.703467	70.063481
81	6	4	-0.66341273	45.064573	21.676557	69.098568
82	6	4	-0.66341273	45.920053	22.141037	71.444402
83	6	5	-0.98629526	47.271128	22.681413	69.413958
84	6	3	1.5785306	46.946535	24.204857	69.776521
85	6	4	-0.66341273	45.501146	24.442716	69.622469
86	6	4	-0.66341273	47.577424	24.44088	71.085629
87	6	1	0.53867169	47.845216	25.343287	68.51016
88	6	2	-0.26574309	49.209771	25.215552	68.585219
89	6	2	-0.26574309	47.474065	25.070562	67.219839
90	6	2	-0.26574309	47.563748	26.666355	68.736444
91	7	1	0.53867169	68.641572	60.146427	42.928867
92	7	2	-0.26574303	68.364663	59.009895	42.215133
93	7	2	-0.26574303	70.007157	60.252442	43.017917
94	7	2	-0.26574303	68.161192	59.952602	44.198184
95	7	3	1.5785306	67.86128	61.699085	42.110467
96	7	4	-0.66341273	66.419058	61.445994	41.984696
97	7	4	-0.66341273	68.352203	62.877779	42.844181
98	7	5	-0.98629526	68.445516	61.839151	40.630631
99	7	3	1.5785306	67.474642	62.743979	39.715481
100	7	4	-0.66341273	67.067285	63.926291	40.490632
101	7	4	-0.66341273	68.342886	63.018575	38.556867
102	7	1	0.53867169	65.912919	61.776352	39.070303
103	7	2	-0.26574309	66.123357	60.421834	39.029207
104	7	2	-0.26574309	64.783111	61.986656	39.819636
105	7	2	-0.26574309	65.581903	62.160311	37.797647
106	8	1	0.53867169	0.43959923	77.151628	66.468229
107	8	2	-0.26574303	0.83327159	77.411494	67.756557
108	8	2	-0.26574303	-0.45942016	76.115751	66.522379
109	8	2	-0.26574303	1.53888	76.687288	65.793834
110	8	3	1.5785306	-0.30745663	78.713102	65.622568
111	8	4	-0.66341273	0.6633316	79.814115	65.769172
112	8	4	-0.66341273	-0.74950598	78.3144	64.278464
113	8	5	-0.98629526	-1.5689981	79.209595	66.484804
114	8	3	1.5785306	-2.6060545	79.998903	65.551882
115	8	4	-0.66341273	-1.8343975	80.953388	64.734578
116	8	4	-0.66341273	-3.4427193	78.967242	64.919395
117	8	1	0.53867169	-3.7511495	81.052103	66.684265
118	8	2	-0.26574309	-4.4814575	80.278463	67.549367
119	8	2	-0.26574309	-3.0231529	81.931524	67.447343
120	8	2	-0.26574309	-4.6440363	81.794796	65.95211
121	9	1	0.53867169	26.99738	61.94787	15.373831
122	9	2	-0.26574303	26.904075	62.56474	16.587263
123	9	2	-0.26574303	27.934546	62.632527	14.642423
124	9	2	-0.26574303	25.793018	62.125545	14.748635
125	9	3	1.5785306	27.449811	60.087819	15.556822
126	9	4	-0.66341273	26.526525	59.49862	16.537621
127	9	4	-0.66341273	27.559083	59.528975	14.201324
128	9	5	-0.98629526	28.920822	59.979405	16.177069
129	9	3	1.5785306	29.214554	58.492546	16.735145
130	9	4	-0.66341273	28.412235	57.487588	16.016364
131	9	4	-0.66341273	30.675952	58.408089	16.561306
132	9	1	0.53867169	28.86997	58.34682	18.625453
133	9	2	-0.26574309	29.535513	59.311929	19.333799
134	9	2	-0.26574309	27.544916	58.430047	18.937019
135	9	2	-0.26574309	29.305792	57.135158	19.095262
136	10	1	0.53867169	36.98535	56.098118	16.703964
137	10	2	-0.26574303	37.665884	55.025067	16.1912
138	10	2	-0.26574303	37.924304	56.914921	17.281983
139	10	2	-0.26574303	36.194599	55.629978	17.72151
140	10	3	1.5785306	35.956848	57.015944	15.363642
141	10	4	-0.66341273	35.125511	56.015797	14.687312
142	10	4	-0.66341273	35.335135	58.179569	16.019764
143	10	5	-0.98629526	36.96136	57.618394	14.286408
144	10	3	1.5785306	36.198373	57.997599	12.915039
145	10	4	-0.66341273	34.835045	58.463044	13.220893
146	10	4	-0.66341273	37.088978	59.030871	12.360948
147	10	1	0.53867169	36.149721	56.520915	11.660678
148	10	2	-0.26574309	37.3614	55.883288	11.591395
149	10	2	-0.26574309	35.208535	55.572	11.951983
150	10	2	-0.26574309	35.857964	56.966071	10.39618
151	11	1	0.53867169	42.771382	55.675592	31.582575
152	11	2	-0.26574303	42.705941	54.357023	31.953354
153	11	2	-0.26574303	42.734818	55.712023	30.217342
154	11	2	-0.26574303	43.998342	56.147194	31.971698
155	11	3	1.5785306	41.335239	56.709046	32.325895
156	11	4	-0.66341273	41.30167	56.422372	33.767855
157	11	4	-0.66341273	41.512551	58.100262	31.873443
158	11	5	-0.98629526	39.960577	56.1657	31.704209
159	11	3	1.5785306	38.744621	57.165704	32.01185
160	11	4	-0.66341273	38.768237	57.497649	33.444686
161	11	4	-0.66341273	38.86776	58.273273	31.04707
162	11	1	0.53867169	37.081587	56.268983	31.646323
163	11	2	-0.26574309	36.994629	55.855737	30.342522
164	11	2	-0.26574309	36.910467	55.163426	32.434092
165	11	2	-0.26574309	36.018159	57.099156	31.882455
166	12	1	0.53867169	61.5414	56.605253	53.303452
167	12	2	-0.26574303	62.57267	57.355857	53.798885
168	12	2	-0.26574303	60.507684	56.701894	54.200363
169	12	2	-0.26574303	61.950598	55.30015	53.320923
170	12	3	1.5785306	60.98978	57.162433	51.539798
171	12	4	-0.66341273	62.169971	57.131519	50.659213
172	12	4	-0.66341273	59.803238	56.363821	51.184502
173	12	5	-0.98629526	60.530372	58.695469	51.618347
174	12	3	1.5785306	59.66156	59.106202	50.341592
175	12	4	-0.66341273	60.285897	58.543124	49.134927
176	12	4	-0.66341273	58.281465	58.723078	50.686288
177	12	1	0.53867169	59.702821	61.025333	50.172267
178	12	2	-0.26574309	59.244137	61.649938	51.306505
179	12	2	-0.26574309	60.970082	61.488705	49.932141
180	12	2	-0.26574309	58.929815	61.464682	49.130936
181	13	1	0.53867169	68.901334	26.567488	44.358611
182	13	2	-0.26574303	68.796458	25.965583	43.132534
183	13	2	-0.26574303	67.63144	26.801159	44.821043
184	13	2	-0.26574303	69.482112	27.796311	44.16234
185	13	3	1.5785306	69.922757	25.514586	45.599785
186	13	4	-0.66341273	71.232486	25.235994	44.984388
187	13	4	-0.66341273	69.883399	26.222434	46.89137
188	13	5	-0.98629526	69.234624	24.081879	45.77764
189	13	3	1.5785306	69.686246	23.407147	47.158508
190	13	4	-0.66341273	71.13286	23.633561	47.343965
191	13	4	-0.66341273	68.744144	23.917518	48.165965
192	13	1	0.53867169	69.423008	21.500802	47.023807
193	13	2	-0.26574309	68.118253	21.163447	46.775742
194	13	2	-0.26574309	70.168829	20.941708	46.015525
195	13	2	-0.26574309	69.783602	20.850356	48.176146
196	14	1	0.53867169	69.01268	34.943132	60.788474
197	14	2	-0.26574303	69.969845	34.488471	59.920859
198	14	2	-0.26574303	68.274536	33.858497	61.186519
199	14	2	-0.26574303	68.178029	35.764399	60.073018
200	14	3	1.5785306	69.793725	35.871143	62.277722
201	14	4	-0.66341273	70.64146	36.945539	61.732483
202	14	4	-0.66341273	68.700857	36.245511	63.192525
203	14	5	-0.98629526	70.809307	34.887519	63.027878
204	14	3	1.5785306	71.02118	35.355175	64.5367
205	14	4	-0.66341273	71.194	36.820629	64.56521
206	14	4	-0.66341273	69.922967	34.735765	65.297208
207	14	1	0.53867169	72.652121	34.596713	65.212164
208	14	2	-0.26574309	72.652311	33.227887	65.148749
209	14	2	-0.26574309	73.749623	35.047982	64.527392
210	14	2	-0.26574309	72.833934	34.936428	66.532507
211	15	1	0.53867169	62.327209	54.995737	77.588
212	15	2	-0.26574303	61.012826	54.631534	77.71976
213	15	2	-0.26574303	63.084879	54.009542	78.16474
214	15	2	-0.26574303	62.51009	56.135211	78.328676
215	15	3	1.5785306	62.811766	55.278196	75.748892
216	15	4	-0.66341273	61.887918	56.280775	75.186234
217	15	4	-0.66341273	64.261255	55.538688	75.706091
218	15	5	-0.98629526	62.521119	53.942547	74.921465
219	15	3	1.5785306	63.336596	53.928151	73.543754
220	15	4	-0.66341273	63.271527	55.272145	72.942271
221	15	4	-0.66341273	64.653182	53.348517	73.871584
222	15	1	0.53867169	62.444606	52.717085	72.347441
223	15	2	-0.26574309	62.304916	51.474595	72.907491
224	15	2	-0.26574309	61.192193	53.168383	72.020831
225	15	2	-0.26574309	63.136287	52.544107	71.177492
226	16	1	0.53867169	31.312091	53.555179	57.242637
227	16	2	-0.26574303	31.357009	52.190437	57.383509
228	16	2	-0.26574303	30.207372	53.849077	56.485701
229	16	2	-0.26574303	32.408538	53.928351	56.510491
230	16	3	1.5785306	31.261711	54.447002	58.945379
231	16	4	-0.66341273	32.425168	53.981977	59.715528
232	16	4	-0.66341273	31.114235	55.887198	58.682218
233	16	5	-0.98629526	29.966068	53.931203	59.743276
234	16	3	1.5785306	29.647815	54.8876	60.993457
235	16	4	-0.66341273	30.892413	55.038967	61.762462
236	16	4	-0.66341273	28.954878	56.066856	60.453353
237	16	1	0.53867169	28.411663	53.96337	62.135139
238	16	2	-0.26574309	27.240834	53.660417	61.491141
239	16	2	-0.26574309	28.950498	52.77905	62.572012
240	16	2	-0.26574309	28.089743	54.694777	63.249397
241	17	1	0.53867169	26.655359	62.48024	56.984138
242	17	2	-0.26574303	26.284151	63.648915	56.371527
243	17	2	-0.26574303	28.00375	62.567329	57.217197
244	17	2	-0.26574303	26.455855	61.455822	56.097813
245	17	3	1.5785306	25.710306	62.195082	58.627386
246	17	4	-0.66341273	24.266787	62.199864	58.331537
247	17	4	-0.66341273	26.321969	61.023068	59.279833
248	17	5	-0.98629526	25.971732	63.46673	59.558902
249	17	3	1.5785306	25.630224	63.126831	61.087599
250	17	4	-0.66341273	24.441078	62.260008	61.134458
251	17	4	-0.66341273	26.917059	62.649565	61.628795
252	17	1	0.53867169	25.184405	64.777846	61.965122
253	17	2	-0.26574309	26.296434	65.56303	62.133203
254	17	2	-0.26574309	24.278629	65.50673	61.238346
255	17	2	-0.26574309	24.627154	64.57963	63.197069
256	18	1	0.53867169	34.605448	55.546741	68.17976
257	18	2	-0.26574303	34.174044	54.249549	68.093543
258	18	2	-0.26574303	34.810889	55.827594	69.506693
259	18	2	-0.26574303	33.579757	56.352363	67.758484
260	18	3	1.5785306	36.196327	55.846829	67.145987
261	18	4	-0.66341273	35.921371	55.414019	65.765834
262	18	4	-0.66341273	36.61916	57.237468	67.403502
263	18	5	-0.98629526	37.346735	54.875216	67.68168
264	18	3	1.5785306	38.799429	55.380139	67.226744
265	18	4	-0.66341273	38.718374	55.985832	65.886769
266	18	4	-0.66341273	39.257615	56.249218	68.326921
267	18	1	0.53867169	39.990387	53.876243	67.130585
268	18	2	-0.26574309	40.086508	53.230028	68.336596
269	18	2	-0.26574309	39.573927	52.957082	66.203799
270	18	2	-0.26574309	41.255069	54.274611	66.782842
271	19	1	0.53867169	61.221123	70.913653	6.625253
272	19	2	-0.26574303	60.562835	69.726934	6.8174559
273	19	2	-0.26574303	60.310497	71.852064	6.2128752
274	19	2	-0.26574303	62.073503	70.728164	5.5686921
275	19	3	1.5785306	62.205067	71.442704	8.2081395
276	19	4	-0.66341273	63.487287	70.718546	8.185212
277	19	4	-0.66341273	62.296014	72.912836	8.2828349
278	19	5	-0.98629526	61.546836	70.874343	9.5672721
279	19	3	1.5785306	60.339985	71.809859	10.047802
280	19	4	-0.66341273	60.973368	72.888837	10.822465
281	19	4	-0.66341273	59.555979	72.147937	8.8518757
282	19	1	0.53867169	59.209213	70.799379	11.22943
283	19	2	-0.26574309	58.672957	69.710231	10.592937
284	19	2	-0.26574309	59.900498	70.322881	12.310784
285	19	2	-0.26574309	58.166723	71.553941	11.701431
286	20	1	0.53867169	51.727204	29.392004	43.612471
287	20	2	-0.26574303	50.610437	28.759873	43.131509
288	20	2	-0.26574303	51.312265	30.237267	44.606872
289	20	2	-0.26574303	52.199192	30.185289	42.599273
290	20	3	1.5785306	53.061447	28.141437	44.228387
291	20	4	-0.66341273	53.466048	27.329853	43.069224
292	20	4	-0.66341273	54.081531	28.905907	44.967012
293	20	5	-0.98629526	52.385545	27.095442	45.242906
294	20	3	1.5785306	53.507099	26.360903	46.125512
295	20	4	-0.66341273	54.585505	25.9267	45.222239
296	20	4	-0.66341273	53.80115	27.274919	47.239418
297	20	1	0.53867169	52.730212	24.771378	46.882253
298	20	2	-0.26574309	51.578755	25.038047	47.575922
299	20	2	-0.26574309	52.407908	23.85133	45.914655
300	20	2	-0.26574309	53.58644	24.153464	47.75444
301	21	1	0.53867169	31.711807	23.576655	57.698221
302	21	2	-0.26574303	32.38564	22.78367	58.589664
303	21	2	-0.26574303	32.097566	23.194001	56.447759
304	21	2	-0.26574303	32.170811	24.859576	57.8652
305	21	3	1.5785306	29.805744	23.491344	58.016105
306	21	4	-0.66341273	29.594419	23.821979	59.435391
307	21	4	-0.66341273	29.078264	24.352632	57.067866
308	21	5	-0.98629526	29.241443	21.97993	57.969813
309	21	3	1.5785306	28.726587	21.606872	56.495733
310	21	4	-0.66341273	27.354245	22.134871	56.44753
311	21	4	-0.66341273	29.74051	22.083213	55.545015
312	21	1	0.53867169	28.606591	19.689752	56.361122
313	21	2	-0.26574309	29.816206	19.081404	56.565003
314	21	2	-0.26574309	27.751439	19.176463	57.307611
315	21	2	-0.26574309	28.131607	19.292083	55.140958
316	22	1	0.53867169	66.480498	57.482762	57.261305
317	22	2	-0.26574303	67.491827	56.711493	56.747108
318	22	2	-0.26574303	66.856713	57.86334	58.523116
319	22	2	-0.26574303	65.375986	56.683488	57.397208
320	22	3	1.5785306	66.130748	59.01484	56.158972
321	22	4	-0.66341273	64.951954	59.69995	56.716962
322	22	4	-0.66341273	67.394719	59.767022	56.044364
323	22	5	-0.98629526	65.689201	58.519998	54.700418
324	22	3	1.5785306	65.952778	59.658279	53.608961
325	22	4	-0.66341273	65.523438	60.953426	54.170728
326	22	4	-0.66341273	67.369318	59.492645	53.236151
327	22	1	0.53867169	64.9054	59.322095	52.030563
328	22	2	-0.26574309	63.575082	59.549174	52.240186
329	22	2	-0.26574309	65.291595	60.143309	51.00215
330	22	2	-0.26574309	65.052805	58.037696	51.576848
331	23	1	0.53867169	5.4164714	11.36025	27.577965
332	23	2	-0.26574303	4.6676517	10.620084	28.458743
333	23	2	-0.26574303	6.4914429	11.821328	28.289621
334	23	2	-0.26574303	4.6634042	12.454911	27.246778
335	23	3	1.5785306	5.9320968	10.330722	26.033561
336	23	4	-0.66341273	4.6886	9.8400885	25.414104
337	23	4	-0.66341273	6.8886048	11.135778	25.261278
338	23	5	-0.98629526	6.6771138	9.0055418	26.538537
339	23	3	1.5785306	7.536779	8.361789	25.344992
340	23	4	-0.66341273	6.7540169	8.4249365	24.100583
341	23	4	-0.66341273	8.8603103	9.0048897	25.413706
342	23	1	0.53867169	7.8114623	6.503213	25.74461
343	23	2	-0.26574309	8.4478366	6.3362396	26.947894
344	23	2	-0.26574309	6.626873	5.8132476	25.810144
345	23	2	-0.26574309	8.5968393	5.8994132	24.796472
346	24	1	0.53867169	52.247257	32.15394	51.141467
347	24	2	-0.26574303	52.211137	31.065285	50.317154
348	24	2	-0.26574303	52.260542	33.241498	50.304718
349	24	2	-0.26574303	53.454065	32.087584	51.790309
350	24	3	1.5785306	50.718327	32.189515	52.34664
351	24	4	-0.66341273	49.61648	31.447403	51.705656
352	24	4	-0.66341273	51.089792	31.739028	53.699288
353	24	5	-0.98629526	50.06309	33.649528	52.461948
354	24	3	1.5785306	50.948234	34.590633	53.411703
355	24	4	-0.66341273	50.412145	34.369466	54.765906
356	24	4	-0.66341273	52.359738	34.278932	53.153343
357	24	1	0.53867169	50.655637	36.427162	52.919827
358	24	2	-0.26574309	50.991383	36.646535	51.608033
359	24	2	-0.26574309	49.345355	36.797388	53.062983
360	24	2	-0.26574309	51.408114	37.276983	53.687539
361	25	1	0.53867169	27.102089	54.062147	73.734217
362	25	2	-0.26574303	25.857956	54.581814	73.988667
363	25	2	-0.26574303	27.493796	53.376188	74.855213
364	25	2	-0.26574303	27.96119	55.120082	73.583913
365	25	3	1.5785306	27.089229	52.936668	72.175803
366	25	4	-0.66341273	26.514428	53.716969	71.066055
367	25	4	-0.66341273	28.439367	52.37083	72.019315
368	25	5	-0.98629526	26.021416	51.754131	72.402577
369	25	3	1.5785306	26.411262	50.471201	71.529927
370	25	4	-0.66341273	26.668313	50.934644	70.152617
371	25	4	-0.66341273	27.463462	49.770036	72.282915
372	25	1	0.53867169	24.893601	49.294086	71.447353
373	25	2	-0.26574309	24.510944	48.857017	72.687922
374	25	2	-0.26574309	23.804779	49.909668	70.884027
375	25	2	-0.26574309	25.166185	48.186927	70.684242
376	26	1	0.53867169	56.861806	17.793775	18.00927
377	26	2	-0.26574303	57.423806	17.769616	16.759185
378	26	2	-0.26574303	57.6263	18.626907	18.786511
379	26	2	-0.26574303	56.97084	16.527028	18.522042
380	26	3	1.5785306	55.030699	18.369396	17.939986
381	26	4	-0.66341273	54.30789	17.475711	17.024873
382	26	4	-0.66341273	54.54145	18.512237	19.319217
383	26	5	-0.98629526	54.974189	19.828385	17.291801
384	26	3	1.5785306	53.484979	20.195086	16.796941
385	26	4	-0.66341273	52.537651	19.835459	17.863911
386	26	4	-0.66341273	53.627515	21.632557	16.525531
387	26	1	0.53867169	52.965355	19.323523	15.136197
388	26	2	-0.26574309	54.042912	19.039816	14.339809
389	26	2	-0.26574309	52.253499	18.162569	15.331953
390	26	2	-0.26574309	52.13306	20.124497	14.397646
391	27	1	0.53867169	37.474558	49.122148	61.769185
392	27	2	-0.26574303	38.711095	48.540921	61.879292
393	27	2	-0.26574303	37.297559	49.486055	60.463448
394	27	2	-0.26574303	37.544854	50.301399	62.459893
395	27	3	1.5785306	36.053112	48.000941	62.486434
396	27	4	-0.66341273	36.416621	47.6688	63.872857
397	27	4	-0.66341273	34.754117	48.666644	62.309332
398	27	5	-0.98629526	35.885146	46.534076	61.842008
399	27	3	1.5785306	36.115286	46.578636	60.265989
400	27	4	-0.66341273	35.30556	47.681537	59.729791
401	27	4	-0.66341273	37.577958	46.621828	60.111485
402	27	1	0.53867169	35.47997	44.93546	59.495287
403	27	2	-0.26574309	36.102614	43.843808	60.044751
404	27	2	-0.26574309	34.134138	44.77396	59.687119
405	27	2	-0.26574309	35.707026	44.891796	58.145709
406	28	1	0.53867169	24.285944	14.418111	38.828638
407	28	2	-0.26574303	23.420148	13.391502	39.125137
408	28	2	-0.26574303	24.313664	15.221334	39.939227
409	28	2	-0.26574303	23.710649	15.145255	37.820787
410	28	3	1.5785306	26.042097	13.77856	38.366687
411	28	4	-0.66341273	25.887012	12.801551	37.285559
412	28	4	-0.66341273	26.919796	14.948466	38.210557
413	28	5	-0.98629526	26.611047	12.986504	39.630425
414	28	3	1.5785306	27.811205	12.00148	39.201999
415	28	4	-0.66341273	28.747377	12.747153	38.345797
416	28	4	-0.66341273	28.327982	11.633295	40.530796
417	28	1	0.53867169	27.209911	10.364094	38.343284
418	28	2	-0.26574309	25.940015	10.022589	38.73795
419	28	2	-0.26574309	27.236688	10.410254	36.974845
420	28	2	-0.26574309	28.020511	9.3128228	38.68727
421	29	1	0.53867169	62.507095	43.691998	25.37642
422	29	2	-0.26574303	63.612514	44.486957	25.537772
423	29	2	-0.26574303	62.277737	43.060594	26.569622
424	29	2	-0.26574303	62.84976	42.73489	24.455173
425	29	3	1.5785306	60.990562	44.714832	24.789429
426	29	4	-0.66341273	61.381841	45.361519	23.529041
427	29	4	-0.66341273	59.809084	43.839388	24.847379
428	29	5	-0.98629526	60.713882	45.877447	25.843205
429	29	3	1.5785306	59.858651	47.074423	25.174363
430	29	4	-0.66341273	58.820701	46.48057	24.317541
431	29	4	-0.66341273	59.397225	47.774196	26.380641
432	29	1	0.53867169	60.984569	48.300109	24.164047
433	29	2	-0.26574309	62.280931	48.294683	24.621501
434	29	2	-0.26574309	61.0466	48.023973	22.8228
435	29	2	-0.26574309	60.550437	49.593472	24.261701
436	30	1	0.53867169	18.367437	58.900571	59.01825
437	30	2	-0.26574303	17.978851	58.170514	57.926641
438	30	2	-0.26574303	19.157844	59.915671	58.554502
439	30	2	-0.26574303	19.183322	58.096447	59.771948
440	30	3	1.5785306	16.836489	59.494529	60.048904
441	30	4	-0.66341273	16.057142	58.303132	60.420461
442	30	4	-0.66341273	17.268695	60.330076	61.184464
443	30	5	-0.98629526	15.770313	60.295434	59.142327
444	30	3	1.5785306	16.036716	61.87098	59.179139
445	30	4	-0.66341273	15.412587	62.325869	60.431476
446	30	4	-0.66341273	17.475169	62.071366	58.944039
447	30	1	0.53867169	15.070317	62.675591	57.722187
448	30	2	-0.26574309	15.475082	62.182398	56.50826
449	30	2	-0.26574309	13.723569	62.428379	57.815022
450	30	2	-0.26574309	15.235432	64.03542	57.690015
451	31	1	0.53867169	50.882697	36.020782	68.735437
452	31	2	-0.26574303	50.334654	36.436431	69.92105
453	31	2	-0.26574303	50.165339	34.936106	68.306971
454	31	2	-0.26574303	52.132211	35.526638	69.016905
455	31	3	1.5785306	50.990601	37.463198	67.431641
456	31	4	-0.66341273	52.132421	38.322663	67.791905
457	31	4	-0.66341273	51.054001	36.925337	66.064744
458	31	5	-0.98629526	49.787636	38.533466	67.536106
459	31	3	1.5785306	48.493857	38.004229	66.755986
460	31	4	-0.66341273	48.727722	38.360257	65.3475
461	31	4	-0.66341273	48.303652	36.607475	67.163248
462	31	1	0.53867169	46.957555	39.002466	67.347426
463	31	2	-0.26574309	46.667404	38.770547	68.667235
464	31	2	-0.26574309	47.151465	40.353928	67.207017
465	31	2	-0.26574309	45.836244	38.674939	66.629834
466	32	1	0.53867169	-2.1978918	27.471404	15.614562
467	32	2	-0.26574303	-3.5053715	27.5718	16.013831
468	32	2	-0.26574303	-1.8481369	26.148438	15.688262
469	32	2	-0.26574303	-1.4410855	28.135686	16.546988
470	32	3	1.5785306	-1.9230345	28.182716	13.849022
471	32	4	-0.66341273	-2.4144082	29.570704	13.845562
472	32	4	-0.66341273	-0.51807348	27.924376	13.483012
473	32	5	-0.98629526	-2.8638154	27.397873	12.816334
474	32	3	1.5785306	-2.3299758	27.574024	11.316105
475	32	4	-0.66341273	-1.9212528	28.975172	11.112369
476	32	4	-0.66341273	-1.321241	26.515465	11.136144
477	32	1	0.53867169	-3.7755069	27.212224	10.096669
478	32	2	-0.26574309	-4.2662343	25.940356	10.240495
479	32	2	-0.26574309	-4.8292232	28.071318	10.278827
480	32	2	-0.26574309	-3.3729765	27.340763	8.7920153
481	33	1	0.53867169	79.300408	8.0139989	9.0706766
482	33	2	-0.26574303	78.953075	6.77145	9.539575
483	33	2	-0.26574303	80.654716	8.1284577	9.2643517
484	33	2	-0.26574303	78.698525	8.9423859	9.8795575
485	33	3	1.5785306	78.822598	8.239646	7.2196281
486	33	4	-0.66341273	77.373743	8.0050915	7.1201974
487	33	4	-0.66341273	79.42863	9.5029503	6.7701131
488	33	5	-0.98629526	79.512	7.0471913	6.3940686
489	33	3	1.5785306	79.517922	7.4010217	4.8226327
490	33	4	-0.66341273	78.285761	8.1115294	4.4500178
491	33	4	-0.66341273	80.83107	8.0344862	4.6060279
492	33	1	0.53867169	79.540982	5.740664	3.8544697
493	33	2	-0.26574309	80.61799	4.9696732	4.2231357
494	33	2	-0.26574309	78.415985	4.9921688	4.0858817
495	33	2	-0.26574309	79.63357	5.9388286	2.5006527
496	34	1	0.53867169	17.422945	20.297742	41.547093
497	34	2	-0.26574303	17.375734	20.818644	42.813606
498	34	2	-0.26574303	17.119554	21.346118	40.716195
499	34	2	-0.26574303	16.407032	19.385452	41.488314
500	34	3	1.5785306	19.211149	19.571854	41.213975
501	34	4	-0.66341273	20.145447	20.706208	41.238198
502	34	4	-0.66341273	19.539644	18.506898	42.176428
503	34	5	-0.98629526	19.5498	18.934089	39.764767
504	34	3	1.5785306	18.235071	18.249288	39.160445
505	34	4	-0.66341273	17.776512	17.321551	40.2003
506	34	4	-0.66341273	17.40597	19.391712	38.761816
507	34	1	0.53867169	18.681711	17.228539	37.586133
508	34	2	-0.26574309	19.314617	17.988236	36.649797
509	34	2	-0.26574309	19.528918	16.19206	37.877147
510	34	2	-0.26574309	17.57134	16.704062	36.99034
511	35	1	0.53867169	11.06459	34.037359	44.246016
512	35	2	-0.26574303	10.002196	33.280168	44.667993
513	35	2	-0.26574303	11.106576	35.16144	45.029473
514	35	2	-0.26574303	10.787311	34.436893	42.965178
515	35	3	1.5785306	12.705264	33.042724	44.32878
516	35	4	-0.66341273	12.49048	31.782694	43.591104
517	35	4	-0.66341273	13.798096	33.947346	43.931961
518	35	5	-0.98629526	12.945689	32.57359	45.840955
519	35	3	1.5785306	14.494152	32.243803	46.087613
520	35	4	-0.66341273	14.998432	31.492214	44.924603
521	35	4	-0.66341273	15.126054	33.529084	46.430392
522	35	1	0.53867169	14.648315	31.080811	47.607241
523	35	2	-0.26574309	14.177043	31.66467	48.75339
524	35	2	-0.26574309	13.948692	29.916108	47.410865
525	35	2	-0.26574309	15.956208	30.73164	47.830553
526	36	1	0.53867169	54.698606	18.543081	37.148762
527	36	2	-0.26574303	55.813394	18.678323	37.934129
528	36	2	-0.26574303	53.853588	17.677014	37.795479
529	36	2	-0.26574303	55.089474	17.932028	35.990012
530	36	3	1.5785306	53.841825	20.233245	36.796415
531	36	4	-0.66341273	53.260884	20.727918	38.049517
532	36	4	-0.66341273	54.785233	21.084871	36.05119
533	36	5	-0.98629526	52.604046	19.986356	35.820138
534	36	3	1.5785306	51.587863	21.237302	35.826292
535	36	4	-0.66341273	52.359142	22.494237	35.783174
536	36	4	-0.66341273	50.775943	20.908053	34.643092
537	36	1	0.53867169	50.39557	21.222677	37.356167
538	36	2	-0.26574309	50.173035	19.940405	37.796309
539	36	2	-0.26574309	50.848012	21.968842	38.413401
540	36	2	-0.26574309	49.176984	21.74654	37.023413
541	37	1	0.53867169	62.372532	29.187756	48.643208
542	37	2	-0.26574303	62.592573	28.882301	49.961243
543	37	2	-0.26574303	63.15115	28.336701	47.900429
544	37	2	-0.26574303	62.880945	30.443532	48.432331
545	37	3	1.5785306	60.509324	29.063118	48.163676
546	37	4	-0.66341273	59.759111	29.973798	49.045944
547	37	4	-0.66341273	60.437951	29.22895	46.702342
548	37	5	-0.98629526	60.009513	27.564068	48.447623
549	37	3	1.5785306	58.409128	27.515292	48.52098
550	37	4	-0.66341273	58.061123	27.859414	49.913745
551	37	4	-0.66341273	57.860551	28.307185	47.40952
552	37	1	0.53867169	57.82856	25.70632	48.254118
553	37	2	-0.26574309	58.204489	25.228629	47.028708
554	37	2	-0.26574309	58.337765	24.864571	49.210987