Title

13800 atoms
13500 bonds
24600 angles
39000 dihedrals
4500 impropers

11 atom types
11 bond types
8 angle types
22 dihedral types
4 improper types
-12.62806892 67.37193108 xlo xhi
-9.740523696 70.2594763 ylo yhi
-8.220784664 71.77921534 zlo zhi
0.0 0.0 0.0 xy xz yz

Masses

1	12.01078
2	18.998403
3	32.0655
4	15.99943
5	14.00672
6	12.01078
7	1.007947
8	1.007947
9	1.007947
10	1.007947
11	1.007947


Pair Coeffs

1	0.10884061	3.3795318
2	0.061	3.1181455
3	0.25	3.5635949
4	0.2102061	3.0398122
5	0.16769152	3.206876
6	0.086879315	3.4806469
7	0.015779483	2.6445434
8	0.016409246	2.5832257
9	0.013106998	2.4536265
10	0.0157	1.9599772
11	0.014797445	2.4419228

Bond Coeffs

1 harmonic	287.91882093395	1.359315559786
2 harmonic	156.8711507117	1.812798632943
3 harmonic	608.035974961	1.469758533467
4 harmonic	239.8447873633	1.642019753341
5 harmonic	215.30139056395	1.533627603844
6 harmonic	357.8191474159	1.094206460752
7 harmonic	225.97114073395	1.477375101044
8 harmonic	329.26307138675	1.389502949007
9 harmonic	452.0241811971	1.373209032276
10 harmonic	386.4399368291	1.08603610657
11 harmonic	505.163639116	1.309372378949


Angle Coeffs

1 harmonic	119.7125597221	107.2128707706
2 harmonic	66.75631831595	109.9380527584
3 harmonic	124.0884341307	113.2116558678
4 harmonic	94.25109102650001	120.4494266916
5 harmonic	79.47831834420001	121.7705343867
6 harmonic	91.51855890415	108.1730591511
7 harmonic	50.901762366	124.801611398
8 harmonic	36.776637850755	108.3543135269


Dihedral Coeffs

1 fourier 1	-1.572239594429	1	180
2 fourier 1	0.316444679891	2	0
3 fourier 1	0.1426731536269	3	0
4 fourier 1	0.2057583936885	3	0
5 fourier 1	0.0985377828486	3	0
6 fourier 1	0.3549667638131	3	0
7 fourier 1	0.2399307824079	2	180
8 fourier 1	0.9156101580834	1	180
9 fourier 1	0.143904881748	3	0
10 fourier 1	0.3215160932459	2	0
11 fourier 1	0.2510071310501	3	0
12 fourier 1	-0.1108037280545	4	180
13 fourier 1	-0.2219080374426	3	180
14 fourier 1	0.8434650381516	2	0
15 fourier 1	-0.1523281600983	1	0
16 fourier 1	1.469128273675	2	180
17 fourier 1	4.626306460904	2	180
18 fourier 1	1.012490953194	2	180
19 fourier 1	1.409955177277	2	180
20 fourier 1	1.079567853188	2	180
21 fourier 1	1.601769915929	1	0
22 fourier 1	0.2279946533057	3	0


Improper Coeffs

1 5.335286357863333	-1	2
2 1.743596855104667	-1	2
3 3.374156584723333	-1	2
4 0.4187541668506667	-1	2


Atoms

1	1	1	0.53867169	7.4488264	64.19477	17.392527
2	1	2	-0.26574303	6.8860191	64.925904	16.378903
3	1	2	-0.26574303	7.4386698	62.881036	16.995237
4	1	2	-0.26574303	6.6175616	64.28894	18.478575
5	1	3	1.5785306	9.2312622	64.791059	17.806736
6	1	4	-0.66341273	9.162246	66.209192	18.169401
7	1	4	-0.66341273	9.8151177	63.806	18.732758
8	1	5	-0.98629526	10.131083	64.68658	16.487744
9	1	3	1.5785306	11.442949	65.622516	16.610548
10	1	4	-0.66341273	12.057157	65.394502	17.930522
11	1	4	-0.66341273	12.245973	65.140247	15.472147
12	1	1	0.53867169	11.094738	67.511015	16.311382
13	1	2	-0.26574309	10.01812	67.703414	15.483868
14	1	2	-0.26574309	10.891038	68.228359	17.46058
15	1	2	-0.26574309	12.170955	68.104639	15.70136
16	2	1	0.53867169	7.4269754	8.4426314	67.126293
17	2	2	-0.26574303	6.4921218	9.3629348	67.528238
18	2	2	-0.26574303	7.581805	8.6026675	65.77239
19	2	2	-0.26574303	6.8930417	7.1984679	67.337604
20	2	3	1.5785306	9.0936786	8.6747611	68.05203
21	2	4	-0.66341273	8.807382	8.6324638	69.497423
22	2	4	-0.66341273	10.051863	7.7295977	67.460961
23	2	5	-0.98629526	9.6114755	10.174555	67.783194
24	2	3	1.5785306	11.200547	10.255951	68.010483
25	2	4	-0.66341273	11.553719	9.4669938	69.204626
26	2	4	-0.66341273	11.762308	9.9359626	66.688013
27	2	1	0.53867169	11.675456	12.079349	68.391533
28	2	2	-0.26574309	11.354208	12.916349	67.35826
29	2	2	-0.26574309	11.039039	12.551931	69.511671
30	2	2	-0.26574309	13.022522	12.211639	68.608079
31	3	1	0.53867169	35.042243	9.380188	58.721619
32	3	2	-0.26574303	34.860723	9.1950971	57.378073
33	3	2	-0.26574303	36.36601	9.1288644	58.985982
34	3	2	-0.26574303	34.306936	8.4202361	59.36801
35	3	3	1.5785306	34.540451	11.146594	59.29585
36	3	4	-0.66341273	33.178189	11.424457	58.819785
37	3	4	-0.66341273	34.831617	11.23444	60.733728
38	3	5	-0.98629526	35.466716	12.21288	58.554688
39	3	3	1.5785306	35.396719	13.655725	59.269066
40	3	4	-0.66341273	36.318965	13.55299	60.415077
41	3	4	-0.66341273	35.831895	14.557472	58.187709
42	3	1	0.53867169	33.642874	14.249607	59.86383
43	3	2	-0.26574309	32.720976	14.27202	58.852658
44	3	2	-0.26574309	33.133426	13.505969	60.892482
45	3	2	-0.26574309	33.711643	15.532452	60.334668
46	4	1	0.53867169	59.170856	9.5887476	11.085367
47	4	2	-0.26574303	57.99109	9.4107848	10.409622
48	4	2	-0.26574303	59.62162	10.845366	10.776925
49	4	2	-0.26574303	60.065646	8.6851013	10.57519
50	4	3	1.5785306	58.936048	9.3602264	12.97827
51	4	4	-0.66341273	58.169565	8.1188071	13.174566
52	4	4	-0.66341273	60.259409	9.4814116	13.608979
53	4	5	-0.98629526	57.954473	10.517619	13.528255
54	4	3	1.5785306	58.268323	10.804321	15.082412
55	4	4	-0.66341273	58.385696	9.5096415	15.77599
56	4	4	-0.66341273	59.381933	11.766336	15.089955
57	4	1	0.53867169	56.759634	11.712822	15.841167
58	4	2	-0.26574309	56.589561	12.949265	15.275539
59	4	2	-0.26574309	55.599957	11.007347	15.649223
60	4	2	-0.26574309	56.913438	11.905706	17.188163
61	5	1	0.53867169	53.244867	39.702339	63.85819
62	5	2	-0.26574303	53.213	40.666456	62.885756
63	5	2	-0.26574303	54.474764	39.098952	63.790665
64	5	2	-0.26574303	52.315869	38.750339	63.522196
65	5	3	1.5785306	52.890601	40.421896	65.605125
66	5	4	-0.66341273	51.618648	41.160684	65.522575
67	5	4	-0.66341273	52.99881	39.305949	66.558857
68	5	5	-0.98629526	54.012895	41.50291	65.958638
69	5	3	1.5785306	54.038854	41.802306	67.535281
70	5	4	-0.66341273	52.651019	41.957817	68.01023
71	5	4	-0.66341273	54.881525	40.741005	68.11008
72	5	1	0.53867169	54.939528	43.479652	67.814322
73	5	2	-0.26574309	56.199236	43.478293	67.27284
74	5	2	-0.26574309	54.254069	44.526663	67.251477
75	5	2	-0.26574309	55.069919	43.76965	69.14465
76	6	1	0.53867169	44.318275	23.439696	69.195971
77	6	2	-0.26574303	43.651514	23.728058	70.355749
78	6	2	-0.26574303	43.355083	23.06509	68.305225
79	6	2	-0.26574303	45.092864	22.343614	69.466062
80	6	3	1.5785306	45.398517	24.94216	68.60836
81	6	4	-0.66341273	45.935564	25.567348	69.826226
82	6	4	-0.66341273	46.404061	24.515834	67.614288
83	6	5	-0.98629526	44.479656	26.121042	67.995219
84	6	3	1.5785306	44.321594	25.960875	66.408615
85	6	4	-0.66341273	45.499272	26.633241	65.832429
86	6	4	-0.66341273	44.070134	24.5418	66.11393
87	6	1	0.53867169	42.77431	26.95667	65.852699
88	6	2	-0.26574309	41.632667	26.515419	66.466575
89	6	2	-0.26574309	42.898841	28.288245	66.157055
90	6	2	-0.26574309	42.577138	26.876545	64.499068
91	7	1	0.53867169	74.096751	58.244572	38.441257
92	7	2	-0.26574303	74.916525	57.849789	39.466414
93	7	2	-0.26574303	73.742614	57.117662	37.745459
94	7	2	-0.26574303	74.846411	59.017057	37.591262
95	7	3	1.5785306	72.557111	59.207788	39.07547
96	7	4	-0.66341273	73.039293	60.388746	39.813673
97	7	4	-0.66341273	71.67294	59.434199	37.918692
98	7	5	-0.98629526	71.782742	58.314843	40.15347
99	7	3	1.5785306	70.269608	58.810468	40.320721
100	7	4	-0.66341273	70.235734	60.28388	40.302701
101	7	4	-0.66341273	69.506507	58.048596	39.314916
102	7	1	0.53867169	69.625497	58.245506	42.037673
103	7	2	-0.26574309	69.744554	56.888595	42.187047
104	7	2	-0.26574309	70.306115	58.841867	43.066707
105	7	2	-0.26574309	68.295298	58.546395	42.191105
106	8	1	0.53867169	-4.6734822	65.804229	68.475423
107	8	2	-0.26574303	-4.9696961	67.116985	68.735499
108	8	2	-0.26574303	-4.1650704	65.758262	67.200532
109	8	2	-0.26574303	-5.8663028	65.127993	68.444128
110	8	3	1.5785306	-3.4592915	65.045099	69.761629
111	8	4	-0.66341273	-4.0510613	65.231204	71.097441
112	8	4	-0.66341273	-3.1539956	63.680558	69.305716
113	8	5	-0.98629526	-2.104716	65.900335	69.759359
114	8	3	1.5785306	-0.89895777	65.055075	70.397868
115	8	4	-0.66341273	-1.3849032	64.386034	71.618485
116	8	4	-0.66341273	-0.37234657	64.21762	69.307647
117	8	1	0.53867169	0.50559476	66.260881	70.924354
118	8	2	-0.26574309	0.98852135	66.98082	69.862075
119	8	2	-0.26574309	0.081535084	67.158408	71.870041
120	8	2	-0.26574309	1.5680867	65.580716	71.465788
121	9	1	0.53867169	29.531515	58.918238	16.752057
122	9	2	-0.26574303	28.44403	58.085737	16.744637
123	9	2	-0.26574303	29.833992	59.222331	18.05352
124	9	2	-0.26574303	29.150085	60.097919	16.171513
125	9	3	1.5785306	31.002116	58.140373	15.767593
126	9	4	-0.66341273	30.63133	58.146219	14.34093
127	9	4	-0.66341273	32.256229	58.834329	16.101978
128	9	5	-0.98629526	31.162639	56.552477	16.031225
129	9	3	1.5785306	32.082119	56.272836	17.314588
130	9	4	-0.66341273	33.460736	56.341596	16.80004
131	9	4	-0.66341273	31.629107	57.189741	18.36722
132	9	1	0.53867169	31.761694	54.472189	17.906038
133	9	2	-0.26574309	30.44975	54.284663	18.252716
134	9	2	-0.26574309	32.04181	53.569527	16.911206
135	9	2	-0.26574309	32.536829	54.143515	18.986245
136	10	1	0.53867169	34.330013	58.014941	8.6651963
137	10	2	-0.26574303	34.75884	58.781519	9.7184861
138	10	2	-0.26574303	35.357952	57.966957	7.7577943
139	10	2	-0.26574303	33.283465	58.680396	8.0850917
140	10	3	1.5785306	33.824928	56.25495	9.2414314
141	10	4	-0.66341273	32.855	56.416068	10.33977
142	10	4	-0.66341273	33.469529	55.484781	8.0426949
143	10	5	-0.98629526	35.115209	55.573573	9.9122435
144	10	3	1.5785306	34.930484	53.979378	9.9739492
145	10	4	-0.66341273	33.564329	53.684125	10.436866
146	10	4	-0.66341273	35.405347	53.502679	8.6673802
147	10	1	0.53867169	36.14465	53.29947	11.29562
148	10	2	-0.26574309	37.42908	53.720369	11.056442
149	10	2	-0.26574309	35.801258	53.726215	12.553585
150	10	2	-0.26574309	36.162364	51.929336	11.31416
151	11	1	0.53867169	36.035736	57.989483	28.95057
152	11	2	-0.26574303	35.913606	57.882633	27.5895
153	11	2	-0.26574303	34.773834	58.160524	29.455285
154	11	2	-0.26574303	36.730807	59.146581	29.200659
155	11	3	1.5785306	36.91396	56.459551	29.720876
156	11	4	-0.66341273	38.233731	56.361742	29.077959
157	11	4	-0.66341273	36.820126	56.607003	31.182516
158	11	5	-0.98629526	36.062646	55.144496	29.355669
159	11	3	1.5785306	36.974239	53.83039	29.536881
160	11	4	-0.66341273	37.755754	53.708534	28.295145
161	11	4	-0.66341273	37.670407	53.918533	30.828538
162	11	1	0.53867169	35.811691	52.298818	29.612939
163	11	2	-0.26574309	34.969797	52.348938	30.694454
164	11	2	-0.26574309	35.020201	52.205944	28.494439
165	11	2	-0.26574309	36.517324	51.128373	29.70093
166	12	1	0.53867169	58.090005	56.135907	51.982923
167	12	2	-0.26574303	57.599196	57.320433	51.502271
168	12	2	-0.26574303	57.26851	55.757103	53.014703
169	12	2	-0.26574303	59.319477	56.405516	52.525654
170	12	3	1.5785306	58.185635	54.767618	50.632949
171	12	4	-0.66341273	58.947186	55.294175	49.496641
172	12	4	-0.66341273	58.64078	53.535709	51.296439
173	12	5	-0.98629526	56.707921	54.471302	50.104041
174	12	3	1.5785306	56.732039	53.594542	48.746896
175	12	4	-0.66341273	57.588596	52.418184	48.96112
176	12	4	-0.66341273	55.297894	53.306451	48.579359
177	12	1	0.53867169	57.301679	54.551334	47.161818
178	12	2	-0.26574309	56.933198	55.866232	47.191229
179	12	2	-0.26574309	58.647509	54.489479	46.91967
180	12	2	-0.26574309	56.719728	53.999209	46.050291
181	13	1	0.53867169	59.43038	18.521595	42.847109
182	13	2	-0.26574303	60.020428	19.130657	41.773157
183	13	2	-0.26574303	60.4285	18.127208	43.699803
184	13	2	-0.26574303	58.829789	17.373102	42.391109
185	13	3	1.5785306	58.167362	19.671891	43.726387
186	13	4	-0.66341273	57.147202	20.057256	42.73541
187	13	4	-0.66341273	57.751136	18.978328	44.956021
188	13	5	-0.98629526	58.886023	21.046386	44.128671
189	13	3	1.5785306	58.084965	21.761477	45.320277
190	13	4	-0.66341273	56.641259	21.67016	45.026875
191	13	4	-0.66341273	58.643441	21.170039	46.544228
192	13	1	0.53867169	58.516941	23.627534	45.328388
193	13	2	-0.26574309	59.840651	23.862035	45.576615
194	13	2	-0.26574309	58.215785	24.21742	44.128976
195	13	2	-0.26574309	57.797065	24.304006	46.275353
196	14	1	0.53867169	69.156718	29.472728	68.37667
197	14	2	-0.26574303	69.962931	29.15185	67.317562
198	14	2	-0.26574303	69.919591	30.082469	69.335914
199	14	2	-0.26574303	68.755612	28.282926	68.920922
200	14	3	1.5785306	67.632079	30.529773	67.840891
201	14	4	-0.66341273	66.925664	29.75853	66.796842
202	14	4	-0.66341273	66.928792	30.921946	69.071856
203	14	5	-0.98629526	68.112378	31.870458	67.096004
204	14	3	1.5785306	66.921306	32.951035	67.058897
205	14	4	-0.66341273	65.679131	32.250316	66.685228
206	14	4	-0.66341273	67.010846	33.671374	68.339067
207	14	1	0.53867169	67.269726	34.237247	65.667644
208	14	2	-0.26574309	68.450642	34.905035	65.855794
209	14	2	-0.26574309	67.323999	33.64778	64.431863
210	14	2	-0.26574309	66.282735	35.186567	65.612125
211	15	1	0.53867169	55.574975	51.085458	73.762093
212	15	2	-0.26574303	56.523395	50.604715	74.626079
213	15	2	-0.26574303	55.107684	52.274661	74.26167
214	15	2	-0.26574303	54.504209	50.225482	73.827901
215	15	3	1.5785306	56.241608	51.204748	71.93924
216	15	4	-0.66341273	56.132855	49.857717	71.354318
217	15	4	-0.66341273	55.527501	52.262011	71.211462
218	15	5	-0.98629526	57.824211	51.491971	71.835895
219	15	3	1.5785306	58.145432	53.031635	72.097383
220	15	4	-0.66341273	57.868705	53.755131	70.842252
221	15	4	-0.66341273	57.417688	53.420219	73.312082
222	15	1	0.53867169	60.021882	53.240881	72.464423
223	15	2	-0.26574309	60.411382	52.53026	73.56925
224	15	2	-0.26574309	60.800643	52.833652	71.412349
225	15	2	-0.26574309	60.32608	54.55905	72.703114
226	16	1	0.53867169	25.68053	53.397846	61.981463
227	16	2	-0.26574303	26.070361	53.682413	60.699172
228	16	2	-0.26574303	24.325662	53.208513	61.957064
229	16	2	-0.26574303	25.935919	54.541612	62.691083
230	16	3	1.5785306	26.635742	51.84454	62.653999
231	16	4	-0.66341273	26.8858	50.936007	61.520863
232	16	4	-0.66341273	27.846487	52.263355	63.376436
233	16	5	-0.98629526	25.751438	50.908694	63.616014
234	16	3	1.5785306	25.632679	51.544461	65.073657
235	16	4	-0.66341273	26.805174	51.033268	65.804505
236	16	4	-0.66341273	25.433517	52.989964	64.917612
237	16	1	0.53867169	24.05715	50.842376	65.9238
238	16	2	-0.26574309	22.915268	51.219749	65.269041
239	16	2	-0.26574309	24.048388	49.473314	65.968037
240	16	2	-0.26574309	23.952599	51.277943	67.217789
241	17	1	0.53867169	22.892282	69.120374	57.776155
242	17	2	-0.26574303	23.35207	69.716282	56.627946
243	17	2	-0.26574303	21.688836	68.533192	57.48209
244	17	2	-0.26574303	22.649765	70.123034	58.678951
245	17	3	1.5785306	24.15607	67.847662	58.463449
246	17	4	-0.66341273	25.442493	68.551226	58.598766
247	17	4	-0.66341273	23.537791	67.203035	59.636016
248	17	5	-0.98629526	24.431016	66.747856	57.328067
249	17	3	1.5785306	24.954493	65.381866	57.990646
250	17	4	-0.66341273	25.976481	65.729098	58.99013
251	17	4	-0.66341273	23.739009	64.655895	58.39251
252	17	1	0.53867169	25.814126	64.352956	56.618342
253	17	2	-0.26574309	24.945238	64.018502	55.612493
254	17	2	-0.26574309	26.83836	65.0597	56.039624
255	17	2	-0.26574309	26.336455	63.182039	57.101402
256	18	1	0.53867169	31.405709	46.395707	55.083113
257	18	2	-0.26574303	31.04332	45.089331	54.880629
258	18	2	-0.26574303	30.551999	47.169938	54.34165
259	18	2	-0.26574303	32.660539	46.537261	54.541345
260	18	3	1.5785306	31.380746	46.865444	56.949363
261	18	4	-0.66341273	29.983881	46.794567	57.407255
262	18	4	-0.66341273	32.403765	46.036544	57.602119
263	18	5	-0.98629526	31.802194	48.404198	57.087064
264	18	3	1.5785306	32.348342	48.706927	58.565302
265	18	4	-0.66341273	31.482985	48.014231	59.537754
266	18	4	-0.66341273	33.787308	48.405442	58.493567
267	18	1	0.53867169	32.182126	50.586333	58.918977
268	18	2	-0.26574309	32.795839	51.347485	57.959189
269	18	2	-0.26574309	30.867741	50.980444	58.982434
270	18	2	-0.26574309	32.751937	50.901217	60.123639
271	19	1	0.53867169	57.574825	75.541372	8.6054212
272	19	2	-0.26574303	58.119831	76.659446	9.1800201
273	19	2	-0.26574303	58.216705	75.36016	7.4037409
274	19	2	-0.26574303	56.261492	75.815697	8.3283144
275	19	3	1.5785306	57.763162	73.995094	9.7331327
276	19	4	-0.66341273	57.195072	74.313941	11.046004
277	19	4	-0.66341273	57.292361	72.83236	8.9642906
278	19	5	-0.98629526	59.327283	73.724174	9.9529111
279	19	3	1.5785306	59.561949	72.809486	11.260279
280	19	4	-0.66341273	58.637333	71.667428	11.211205
281	19	4	-0.66341273	60.978861	72.450881	11.07358
282	19	1	0.53867169	59.433184	73.769255	12.940911
283	19	2	-0.26574309	59.750085	75.094867	12.790188
284	19	2	-0.26574309	58.206987	73.678937	13.543427
285	19	2	-0.26574309	60.329881	73.254561	13.843304
286	20	1	0.53867169	49.841366	20.624478	46.527104
287	20	2	-0.26574303	51.02448	19.967692	46.749167
288	20	2	-0.26574303	49.129314	20.608008	47.692623
289	20	2	-0.26574303	49.149451	19.853379	45.631146
290	20	3	1.5785306	50.110278	22.412522	45.878463
291	20	4	-0.66341273	50.965238	22.288525	44.684577
292	20	4	-0.66341273	48.785295	23.045907	45.814977
293	20	5	-0.98629526	50.980964	23.227558	46.942887
294	20	3	1.5785306	50.89808	24.808874	46.629996
295	20	4	-0.66341273	50.858717	25.020843	45.174317
296	20	4	-0.66341273	49.788547	25.284894	47.473564
297	20	1	0.53867169	52.500958	25.638847	47.268715
298	20	2	-0.26574309	52.693353	25.405033	48.607101
299	20	2	-0.26574309	53.604069	25.182786	46.593394
300	20	2	-0.26574309	52.451839	26.99465	47.095351
301	21	1	0.53867169	31.42864	19.234495	59.690771
302	21	2	-0.26574303	30.221684	19.395318	60.317936
303	21	2	-0.26574303	31.349039	18.059324	58.987756
304	21	2	-0.26574303	32.371085	19.066557	60.670266
305	21	3	1.5785306	31.830196	20.730445	58.554263
306	21	4	-0.66341273	31.685133	21.948152	59.368358
307	21	4	-0.66341273	33.110523	20.44796	57.888446
308	21	5	-0.98629526	30.673292	20.830419	57.434893
309	21	3	1.5785306	31.153421	21.709414	56.166439
310	21	4	-0.66341273	31.90743	22.85599	56.708441
311	21	4	-0.66341273	31.895528	20.716341	55.362515
312	21	1	0.53867169	27.922399	23.051963	54.064054
313	21	2	-0.26574309	27.140174	22.07021	53.479557
314	21	2	-0.26574309	26.988766	23.766868	54.789982
315	21	2	-0.26574309	28.193729	23.889782	52.994838
316	22	1	0.53867169	62.923765	55.699391	51.05844
317	22	2	-0.26574303	63.508105	55.089054	49.980392
318	22	2	-0.26574303	63.771968	55.521998	52.12234
319	22	2	-0.26574303	61.779757	54.996705	51.328735
320	22	3	1.5785306	62.563386	57.55867	50.716629
321	22	4	-0.66341273	61.675706	57.615275	49.545665
322	22	4	-0.66341273	62.153711	58.1673	51.99461
323	22	5	-0.98629526	63.935623	58.25078	50.243759
324	22	3	1.5785306	63.836021	59.838037	50.418568
325	22	4	-0.66341273	62.519269	60.297785	49.955082
326	22	4	-0.66341273	64.252596	60.089936	51.809659
327	22	1	0.53867169	65.149312	60.671692	49.295325
328	22	2	-0.26574309	66.416168	60.253215	49.611387
329	22	2	-0.26574309	64.949298	60.390573	47.970552
330	22	2	-0.26574309	65.11972	62.036066	49.436693
331	23	1	0.53867169	5.0532162	12.070146	20.424933
332	23	2	-0.26574303	4.4092178	12.22369	21.624787
333	23	2	-0.26574303	6.3814157	11.870466	20.707645
334	23	2	-0.26574303	4.9468589	13.253145	19.742564
335	23	3	1.5785306	4.332189	10.60324	19.419047
336	23	4	-0.66341273	2.8777736	10.801697	19.30268
337	23	4	-0.66341273	5.1442236	10.460489	18.198203
338	23	5	-0.98629526	4.490819	9.2687184	20.299914
339	23	3	1.5785306	4.4696349	7.974934	19.358687
340	23	4	-0.66341273	3.4144688	8.1439728	18.344846
341	23	4	-0.66341273	5.8769923	7.8043157	18.962682
342	23	1	0.53867169	3.9821851	6.4623123	20.441563
343	23	2	-0.26574309	4.790841	6.336869	21.541431
344	23	2	-0.26574309	2.6937643	6.5682024	20.901787
345	23	2	-0.26574309	4.0679508	5.2888912	19.745505
346	24	1	0.53867169	52.974005	28.357067	59.054399
347	24	2	-0.26574303	52.612238	28.612807	57.754941
348	24	2	-0.26574303	54.230351	28.864326	59.257984
349	24	2	-0.26574303	53.114409	27.001755	59.178638
350	24	3	1.5785306	51.65895	29.024858	60.318942
351	24	4	-0.66341273	50.62573	27.987728	60.492811
352	24	4	-0.66341273	52.30237	29.433911	61.581593
353	24	5	-0.98629526	50.795913	30.249767	59.746337
354	24	3	1.5785306	51.626534	31.614063	59.819732
355	24	4	-0.66341273	51.407804	32.136755	61.178055
356	24	4	-0.66341273	52.99633	31.303837	59.394226
357	24	1	0.53867169	50.905766	32.867849	58.550296
358	24	2	-0.26574309	51.09396	32.431567	57.264028
359	24	2	-0.26574309	49.561234	33.065579	58.710222
360	24	2	-0.26574309	51.51814	34.08829	58.652434
361	25	1	0.53867169	26.531472	56.139083	73.510184
362	25	2	-0.26574303	25.964746	56.676106	74.63685
363	25	2	-0.26574303	25.63216	55.220709	73.031259
364	25	2	-0.26574303	27.650433	55.448256	73.89595
365	25	3	1.5785306	26.927977	57.482266	72.191911
366	25	4	-0.66341273	27.80004	58.482375	72.823529
367	25	4	-0.66341273	27.374063	56.765137	70.982046
368	25	5	-0.98629526	25.563233	58.273335	71.879439
369	25	3	1.5785306	25.607302	58.891735	70.397716
370	25	4	-0.66341273	26.950829	59.439592	70.146818
371	25	4	-0.66341273	25.094662	57.804074	69.553781
372	25	1	0.53867169	24.356723	60.350504	70.285873
373	25	2	-0.26574309	23.057797	59.923363	70.369577
374	25	2	-0.26574309	24.537809	61.255403	71.301174
375	25	2	-0.26574309	24.47444	61.029677	69.101605
376	26	1	0.53867169	57.126145	22.435586	16.899506
377	26	2	-0.26574303	56.366868	22.322736	15.761356
378	26	2	-0.26574303	56.280599	22.841012	17.899288
379	26	2	-0.26574303	58.008513	23.462336	16.679558
380	26	3	1.5785306	58.021026	20.785158	17.332605
381	26	4	-0.66341273	58.824239	20.406682	16.160822
382	26	4	-0.66341273	58.679452	20.972655	18.638891
383	26	5	-0.98629526	56.907763	19.628751	17.434288
384	26	3	1.5785306	57.366099	18.491689	18.457255
385	26	4	-0.66341273	58.748255	18.107337	18.118513
386	26	4	-0.66341273	57.039657	19.024855	19.788414
387	26	1	0.53867169	56.269064	16.939155	18.196946
388	26	2	-0.26574309	54.960761	17.18285	18.51845
389	26	2	-0.26574309	56.286912	16.496823	16.902068
390	26	2	-0.26574309	56.703963	15.895454	18.966764
391	27	1	0.53867169	32.589417	43.397479	60.531487
392	27	2	-0.26574303	33.798478	42.766881	60.384083
393	27	2	-0.26574303	31.751201	42.501788	61.137142
394	27	2	-0.26574303	32.082546	43.611817	59.279594
395	27	3	1.5785306	32.757223	45.020576	61.556568
396	27	4	-0.66341273	33.769989	45.853591	60.890627
397	27	4	-0.66341273	31.390462	45.508032	61.825476
398	27	5	-0.98629526	33.411739	44.645591	62.972317
399	27	3	1.5785306	33.208532	45.850296	64.022174
400	27	4	-0.66341273	33.237605	47.15167	63.333573
401	27	4	-0.66341273	31.994174	45.484414	64.771156
402	27	1	0.53867169	34.673645	45.865035	65.268722
403	27	2	-0.26574309	34.7769	44.692583	65.970025
404	27	2	-0.26574309	35.87378	46.085134	64.643631
405	27	2	-0.26574309	34.527388	46.876507	66.186457
406	28	1	0.53867169	33.261073	15.373646	33.057411
407	28	2	-0.26574303	32.732236	15.791544	34.252529
408	28	2	-0.26574303	32.405167	14.431574	32.549841
409	28	2	-0.26574303	34.427288	14.711903	33.340499
410	28	3	1.5785306	33.556843	16.824158	31.823299
411	28	4	-0.66341273	34.20754	17.919452	32.562852
412	28	4	-0.66341273	34.251311	16.248817	30.6601
413	28	5	-0.98629526	32.134612	17.421209	31.379902
414	28	3	1.5785306	32.258174	18.140508	29.951129
415	28	4	-0.66341273	33.435018	19.025853	30.004215
416	28	4	-0.66341273	32.174745	17.063686	28.953574
417	28	1	0.53867169	30.713615	19.268534	29.707239
418	28	2	-0.26574309	29.550922	18.548284	29.61411
419	28	2	-0.26574309	30.541527	20.143933	30.750129
420	28	2	-0.26574309	30.819476	20.033135	28.576758
421	29	1	0.53867169	52.752666	44.637408	24.796174
422	29	2	-0.26574303	52.478557	45.838828	25.398884
423	29	2	-0.26574303	53.407841	44.906163	23.622277
424	29	2	-0.26574303	51.555614	44.057922	24.472225
425	29	3	1.5785306	53.794446	43.513393	25.950811
426	29	4	-0.66341273	53.076773	43.413944	27.234476
427	29	4	-0.66341273	54.151454	42.303333	25.193422
428	29	5	-0.98629526	55.180883	44.250717	26.249518
429	29	3	1.5785306	55.921388	43.583336	27.504594
430	29	4	-0.66341273	55.463157	44.40001	28.642294
431	29	4	-0.66341273	55.688601	42.127242	27.524786
432	29	1	0.53867169	57.811718	43.876243	27.319634
433	29	2	-0.26574309	58.304129	43.331962	26.162264
434	29	2	-0.26574309	58.110666	45.216255	27.303011
435	29	2	-0.26574309	58.505149	43.325453	28.365555
436	30	1	0.53867169	16.671522	61.764207	59.734497
437	30	2	-0.26574303	17.374004	60.805998	59.05108
438	30	2	-0.26574303	15.434813	61.261115	60.046062
439	30	2	-0.26574303	16.425774	62.785215	58.853827
440	30	3	1.5785306	17.654847	62.419519	61.275673
441	30	4	-0.66341273	18.604968	63.43071	60.785356
442	30	4	-0.66341273	16.724217	62.878127	62.319875
443	30	5	-0.98629526	18.678402	61.340909	61.916766
444	30	3	1.5785306	17.878838	60.260134	62.790179
445	30	4	-0.66341273	17.599478	60.901356	64.086256
446	30	4	-0.66341273	16.759443	59.805942	61.959519
447	30	1	0.53867169	19.013357	58.743992	63.121705
448	30	2	-0.26574309	19.377512	58.122654	61.956139
449	30	2	-0.26574309	20.167761	59.105558	63.765044
450	30	2	-0.26574309	18.382906	57.809925	63.90264
451	31	1	0.53867169	51.41078	32.372456	70.099564
452	31	2	-0.26574303	50.578418	32.51749	71.174202
453	31	2	-0.26574303	51.553793	31.040668	69.805551
454	31	2	-0.26574303	52.645221	32.808139	70.504904
455	31	3	1.5785306	50.798736	33.357267	68.566833
456	31	4	-0.66341273	50.421686	34.707708	69.02
457	31	4	-0.66341273	51.837807	33.220644	67.529845
458	31	5	-0.98629526	49.454651	32.693896	68.004913
459	31	3	1.5785306	49.189982	33.131149	66.492701
460	31	4	-0.66341273	49.500446	34.564362	66.345272
461	31	4	-0.66341273	49.913135	32.13599	65.675173
462	31	1	0.53867169	47.309341	32.925706	66.132479
463	31	2	-0.26574309	46.909437	31.615403	66.193104
464	31	2	-0.26574309	46.536932	33.625741	67.026014
465	31	2	-0.26574309	46.982141	33.381801	64.884167
466	32	1	0.53867169	3.7955916	28.722866	20.984986
467	32	2	-0.26574303	4.9062446	29.146414	21.674883
468	32	2	-0.26574303	2.7863881	28.571639	21.899123
469	32	2	-0.26574303	4.0772805	27.482641	20.475235
470	32	3	1.5785306	3.3135474	29.960632	19.597065
471	32	4	-0.66341273	4.4920927	30.129385	18.73042
472	32	4	-0.66341273	2.0457678	29.499264	19.004142
473	32	5	-0.98629526	3.0945581	31.40471	20.264137
474	32	3	1.5785306	2.1496648	32.314169	19.348752
475	32	4	-0.66341273	2.6104239	32.196646	17.954286
476	32	4	-0.66341273	0.77422105	31.932638	19.699043
477	32	1	0.53867169	2.3951958	34.150615	19.870719
478	32	2	-0.26574309	1.967871	34.38998	21.150494
479	32	2	-0.26574309	3.7178418	34.515948	19.818113
480	32	2	-0.26574309	1.7152202	35.004487	19.042301
481	33	1	0.53867169	71.247845	11.07803	4.980951
482	33	2	-0.26574303	72.014308	11.9399	4.2383948
483	33	2	-0.26574303	70.748286	10.124705	4.1349539
484	33	2	-0.26574303	70.159383	11.792938	5.4125196
485	33	3	1.5785306	72.238045	10.362796	6.4909017
486	33	4	-0.66341273	72.285776	11.406453	7.5318289
487	33	4	-0.66341273	71.669421	9.0823805	6.9424009
488	33	5	-0.98629526	73.809624	10.178304	6.1922276
489	33	3	1.5785306	74.086037	8.7938988	5.446943
490	33	4	-0.66341273	74.151144	7.7784187	6.5125036
491	33	4	-0.66341273	73.099551	8.6899692	4.3663836
492	33	1	0.53867169	75.832715	8.8843244	4.6447435
493	33	2	-0.26574309	75.898757	9.8422539	3.66689
494	33	2	-0.26574309	76.797829	9.1937405	5.5730075
495	33	2	-0.26574309	76.193175	7.6892793	4.0773404
496	34	1	0.53867169	22.670941	16.536001	39.479969
497	34	2	-0.26574303	23.85489	17.082058	39.05272
498	34	2	-0.26574303	21.677699	17.387391	39.075439
499	34	2	-0.26574303	22.693987	16.552824	40.849209
500	34	3	1.5785306	22.419329	14.755863	38.789508
501	34	4	-0.66341273	22.282271	14.856138	37.333648
502	34	4	-0.66341273	23.453004	13.885486	39.371774
503	34	5	-0.98629526	21.01141	14.194432	39.264083
504	34	3	1.5785306	20.897267	12.611494	38.986459
505	34	4	-0.66341273	21.533244	11.963352	40.149469
506	34	4	-0.66341273	19.439168	12.43968	38.870678
507	34	1	0.53867169	21.693771	11.936084	37.338276
508	34	2	-0.26574309	21.162982	12.521163	36.219678
509	34	2	-0.26574309	23.05831	12.053239	37.285802
510	34	2	-0.26574309	21.453009	10.592107	37.22985
511	35	1	0.53867169	17.427081	33.554256	48.043909
512	35	2	-0.26574303	18.280848	33.872273	47.020383
513	35	2	-0.26574303	16.446207	34.514565	48.063784
514	35	2	-0.26574303	18.139261	33.680959	49.208846
515	35	3	1.5785306	16.677831	31.789939	47.852993
516	35	4	-0.66341273	17.790211	30.857687	47.606397
517	35	4	-0.66341273	15.763223	31.593702	48.99302
518	35	5	-0.98629526	15.812179	31.747503	46.502061
519	35	3	1.5785306	14.771458	30.529935	46.552286
520	35	4	-0.66341273	15.465939	29.331577	47.045174
521	35	4	-0.66341273	13.616048	31.059425	47.288842
522	35	1	0.53867169	14.198846	30.141809	44.761705
523	35	2	-0.26574309	13.775125	31.262605	44.106283
524	35	2	-0.26574309	15.212432	29.622691	44.002247
525	35	2	-0.26574309	13.177346	29.23121	44.723177
526	36	1	0.53867169	50.913005	15.434852	37.689989
527	36	2	-0.26574303	49.619303	15.469739	38.14352
528	36	2	-0.26574303	50.87214	15.107095	36.36025
529	36	2	-0.26574303	51.540527	14.404017	38.341591
530	36	3	1.5785306	51.81715	17.106931	37.985909
531	36	4	-0.66341273	51.701155	17.425576	39.421971
532	36	4	-0.66341273	53.155313	16.999598	37.382209
533	36	5	-0.98629526	51.004748	18.271251	37.247171
534	36	3	1.5785306	51.945128	19.538085	36.965644
535	36	4	-0.66341273	52.782822	19.769633	38.156519
536	36	4	-0.66341273	52.569957	19.269536	35.663848
537	36	1	0.53867169	50.82068	21.082716	36.772292
538	36	2	-0.26574309	50.050249	21.032326	35.638769
539	36	2	-0.26574309	49.961329	21.210775	37.831829
540	36	2	-0.26574309	51.548333	22.243006	36.723859
541	37	1	0.53867169	56.069522	23.115184	49.423003
542	37	2	-0.26574303	55.72979	24.021752	48.454361
543	37	2	-0.26574303	56.199822	21.89857	48.807626
544	37	2	-0.26574303	55.007801	23.025172	50.286274
545	37	3	1.5785306	57.675667	23.640223	50.342431
546	37	4	-0.66341273	57.491603	25.032287	50.792518
547	37	4	-0.66341273	57.990708	22.597024	51.332741
548	37	5	-0.98629526	58.882875	23.712893	49.290395
549	37	3	1.5785306	60.29285	23.645532	50.052567
550	37	4	-0.66341273	60.223331	24.49573	51.251807
551	37	4	-0.66341273	60.59618	22.211337	50.209651
552	37	1	0.53867169	61.646628	24.378088	48.901267
553	37	2	-0.26574309	61.853147	23.593016	47.797241
554	37	2	-0.26574309	61.332107	25.635619	48.460569