Title

14700 atoms
14400 bonds
26400 angles
42300 dihedrals
4500 impropers

11 atom types
11 bond types
8 angle types
22 dihedral types
4 improper types
-13.2006669 66.7993331 xlo xhi
-9.179122448 70.82087755 ylo yhi
-5.238524079 74.76147592 zlo zhi
0.0 0.0 0.0 xy xz yz

Masses

1	12.01078
2	18.998403
3	32.0655
4	15.99943
5	14.00672
6	12.01078
7	1.007947
8	1.007947
9	1.007947
10	1.007947
11	1.007947


Pair Coeffs

1	0.10884061	3.3795318
2	0.061	3.1181455
3	0.25	3.5635949
4	0.2102061	3.0398122
5	0.16769152	3.206876
6	0.086879315	3.4806469
7	0.015779483	2.6445434
8	0.016409246	2.5832257
9	0.013106998	2.4536265
10	0.0157	1.9599772
11	0.014797445	2.4419228

Bond Coeffs

1 harmonic	287.91882093395	1.359315559786
2 harmonic	156.8711507117	1.812798632943
3 harmonic	608.035974961	1.469758533467
4 harmonic	239.8447873633	1.642019753341
5 harmonic	215.30139056395	1.533627603844
6 harmonic	357.8191474159	1.094206460752
7 harmonic	225.97114073395	1.477375101044
8 harmonic	329.26307138675	1.389502949007
9 harmonic	452.0241811971	1.373209032276
10 harmonic	386.4399368291	1.08603610657
11 harmonic	505.163639116	1.309372378949


Angle Coeffs

1 harmonic	119.7125597221	107.2128707706
2 harmonic	66.75631831595	109.9380527584
3 harmonic	124.0884341307	113.2116558678
4 harmonic	94.25109102650001	120.4494266916
5 harmonic	79.47831834420001	121.7705343867
6 harmonic	91.51855890415	108.1730591511
7 harmonic	50.901762366	124.801611398
8 harmonic	36.776637850755	108.3543135269


Dihedral Coeffs

1 fourier 1	-1.572239594429	1	180
2 fourier 1	0.316444679891	2	0
3 fourier 1	0.1426731536269	3	0
4 fourier 1	0.2057583936885	3	0
5 fourier 1	0.0985377828486	3	0
6 fourier 1	0.3549667638131	3	0
7 fourier 1	0.2399307824079	2	180
8 fourier 1	0.9156101580834	1	180
9 fourier 1	0.143904881748	3	0
10 fourier 1	0.3215160932459	2	0
11 fourier 1	0.2510071310501	3	0
12 fourier 1	-0.1108037280545	4	180
13 fourier 1	-0.2219080374426	3	180
14 fourier 1	0.8434650381516	2	0
15 fourier 1	-0.1523281600983	1	0
16 fourier 1	1.469128273675	2	180
17 fourier 1	4.626306460904	2	180
18 fourier 1	1.012490953194	2	180
19 fourier 1	1.409955177277	2	180
20 fourier 1	1.079567853188	2	180
21 fourier 1	1.601769915929	1	0
22 fourier 1	0.2279946533057	3	0


Improper Coeffs

1 5.335286357863333	-1	2
2 1.743596855104667	-1	2
3 3.374156584723333	-1	2
4 0.4187541668506667	-1	2


Atoms

1	1	1	0.53867169	51.980548	74.12725	16.575197
2	1	2	-0.26574303	53.206887	74.73856	16.59174
3	1	2	-0.26574303	51.356549	74.478106	15.405619
4	1	2	-0.26574303	51.233649	74.659123	17.596766
5	1	3	1.5785306	52.124372	72.221103	16.749635
6	1	4	-0.66341273	52.86572	71.943688	17.989975
7	1	4	-0.66341273	50.764084	71.674314	16.600485
8	1	5	-0.98629526	53.059654	71.662788	15.572908
9	1	3	1.5785306	52.734685	70.128436	15.264964
10	1	4	-0.66341273	52.673092	69.411516	16.550246
11	1	4	-0.66341273	51.572371	70.138693	14.362903
12	1	1	0.53867169	54.227686	69.386635	14.295088
13	1	2	-0.26574309	54.439249	70.014873	13.095293
14	1	2	-0.26574309	55.397277	69.491096	15.010388
15	1	2	-0.26574309	54.054728	68.051553	14.02487
16	2	1	0.53867169	21.235039	63.518653	64.300351
17	2	2	-0.26574303	19.912164	63.873639	64.357028
18	2	2	-0.26574303	21.451137	62.990484	63.051391
19	2	2	-0.26574303	21.410332	62.516623	65.216784
20	2	3	1.5785306	22.385528	65.028553	64.63542
21	2	4	-0.66341273	22.102981	65.508518	65.998516
22	2	4	-0.66341273	23.755846	64.651651	64.246345
23	2	5	-0.98629526	21.91304	66.21655	63.667235
24	2	3	1.5785306	23.071976	67.312541	63.496175
25	2	4	-0.66341273	23.64377	67.596426	64.821634
26	2	4	-0.66341273	23.95519	66.786427	62.439122
27	2	1	0.53867169	22.284379	68.937621	62.846098
28	2	2	-0.26574309	21.641047	68.74373	61.651764
29	2	2	-0.26574309	21.361418	69.434667	63.731098
30	2	2	-0.26574309	23.234289	69.906244	62.650971
31	3	1	0.53867169	48.773875	22.373354	46.217079
32	3	2	-0.26574303	47.623458	22.053328	46.875801
33	3	2	-0.26574303	48.369241	23.065088	45.105562
34	3	2	-0.26574303	49.336267	21.206083	45.803246
35	3	3	1.5785306	49.917626	23.458173	47.321868
36	3	4	-0.66341273	50.444646	22.663474	48.442073
37	3	4	-0.66341273	50.80544	24.24907	46.460276
38	3	5	-0.98629526	48.983436	24.528065	48.048549
39	3	3	1.5785306	49.856105	25.689969	48.732638
40	3	4	-0.66341273	50.050244	26.719584	47.697525
41	3	4	-0.66341273	48.943844	26.103067	49.811673
42	3	1	0.53867169	51.551871	25.190437	49.556298
43	3	2	-0.26574309	51.371207	24.297969	50.582781
44	3	2	-0.26574309	52.480054	24.664893	48.698869
45	3	2	-0.26574309	52.141733	26.297405	50.102849
46	4	1	0.53867169	31.241705	20.806077	57.927365
47	4	2	-0.26574303	31.731391	21.101863	56.686392
48	4	2	-0.26574303	31.979558	21.552966	58.810554
49	4	2	-0.26574303	31.494291	19.493967	58.208485
50	4	3	1.5785306	29.384544	21.216323	58.074374
51	4	4	-0.66341273	28.673968	20.544662	56.979895
52	4	4	-0.66341273	29.005227	20.96478	59.476442
53	4	5	-0.98629526	29.205716	22.779961	57.800999
54	4	3	1.5785306	27.790432	23.287868	58.367581
55	4	4	-0.66341273	26.773889	22.237341	58.174896
56	4	4	-0.66341273	28.119597	23.731842	59.732833
57	4	1	0.53867169	27.244837	24.826396	57.354321
58	4	2	-0.26574309	28.194442	25.815535	57.391372
59	4	2	-0.26574309	27.04309	24.513819	56.034608
60	4	2	-0.26574309	26.075683	25.357702	57.833366
61	5	1	0.53867169	62.749743	54.778972	51.754541
62	5	2	-0.26574303	63.730893	54.151011	52.478538
63	5	2	-0.26574303	61.758432	55.141587	52.627802
64	5	2	-0.26574303	62.215734	53.8449	50.910249
65	5	3	1.5785306	63.444309	56.289496	50.789013
66	5	4	-0.66341273	64.613466	55.811915	50.034904
67	5	4	-0.66341273	62.316761	56.92071	50.082836
68	5	5	-0.98629526	64.021678	57.336931	51.850796
69	5	3	1.5785306	64.17634	58.792987	51.191711
70	5	4	-0.66341273	64.728498	58.641086	49.837689
71	5	4	-0.66341273	62.858448	59.427037	51.374412
72	5	1	0.53867169	65.445747	59.787207	52.225413
73	5	2	-0.26574309	65.024967	59.933205	53.521323
74	5	2	-0.26574309	66.665149	59.160256	52.255764
75	5	2	-0.26574309	65.63653	61.044259	51.715331
76	6	1	0.53867169	4.109892	13.183787	22.393138
77	6	2	-0.26574303	3.8407445	14.175047	23.303077
78	6	2	-0.26574303	5.2266687	13.573573	21.696188
79	6	2	-0.26574303	3.0673313	13.157041	21.501791
80	6	3	1.5785306	4.3640861	11.474696	23.240831
81	6	4	-0.66341273	3.1767243	11.213545	24.069819
82	6	4	-0.66341273	4.7405994	10.519667	22.183471
83	6	5	-0.98629526	5.5864805	11.606566	24.270597
84	6	3	1.5785306	6.1806589	10.164207	24.625237
85	6	4	-0.66341273	5.0747865	9.208979	24.806633
86	6	4	-0.66341273	7.2056121	9.932518	23.59288
87	6	1	0.53867169	7.1099037	10.314879	26.307273
88	6	2	-0.26574309	8.1731015	11.179252	26.224651
89	6	2	-0.26574309	6.3018507	10.796884	27.30087
90	6	2	-0.26574309	7.6139176	9.1147554	26.740856
91	7	1	0.53867169	51.626334	36.730452	51.29714
92	7	2	-0.26574303	50.317292	36.358724	51.140628
93	7	2	-0.26574303	51.86286	36.793654	52.646103
94	7	2	-0.26574303	51.769843	37.992399	50.794234
95	7	3	1.5785306	52.796383	35.476243	50.447273
96	7	4	-0.66341273	52.406392	35.394154	49.032345
97	7	4	-0.66341273	54.173789	35.848472	50.800743
98	7	5	-0.98629526	52.541475	34.041965	51.134262
99	7	3	1.5785306	53.105612	32.880425	50.177579
100	7	4	-0.66341273	52.022471	32.604959	49.219446
101	7	4	-0.66341273	54.437132	33.270025	49.690719
102	7	1	0.53867169	53.311405	31.292722	51.224809
103	7	2	-0.26574309	54.193754	31.476829	52.256036
104	7	2	-0.26574309	52.105951	30.922534	51.76116
105	7	2	-0.26574309	53.759079	30.241182	50.469742
106	8	1	0.53867169	24.619267	53.966799	72.873321
107	8	2	-0.26574303	23.73714	52.917533	72.804832
108	8	2	-0.26574303	25.528092	53.770199	71.871128
109	8	2	-0.26574303	25.314608	53.836355	74.044685
110	8	3	1.5785306	23.701766	55.67121	72.78801
111	8	4	-0.66341273	22.823725	55.759392	73.965449
112	8	4	-0.66341273	24.672229	56.77146	72.628212
113	8	5	-0.98629526	22.623558	55.69685	71.589389
114	8	3	1.5785306	23.253999	56.298957	70.256805
115	8	4	-0.66341273	23.255374	57.759748	70.447764
116	8	4	-0.66341273	24.523025	55.589352	70.036144
117	8	1	0.53867169	22.105443	55.93082	68.767924
118	8	2	-0.26574309	21.983852	54.585543	68.547945
119	8	2	-0.26574309	20.85176	56.449556	68.955646
120	8	2	-0.26574309	22.603276	56.498532	67.62311
121	9	1	0.53867169	53.911681	17.941569	13.719463
122	9	2	-0.26574303	53.079467	18.066117	12.635665
123	9	2	-0.26574303	53.137765	17.536074	14.777271
124	9	2	-0.26574303	54.372859	19.196374	14.022877
125	9	3	1.5785306	55.357027	16.712259	13.3899
126	9	4	-0.66341273	56.060863	17.169262	12.178369
127	9	4	-0.66341273	56.093302	16.569386	14.657955
128	9	5	-0.98629526	54.725661	15.28842	13.009517
129	9	3	1.5785306	55.793853	14.11797	13.237846
130	9	4	-0.66341273	57.076287	14.533654	12.651985
131	9	4	-0.66341273	55.718961	13.795365	14.673721
132	9	1	0.53867169	55.209556	12.561431	12.274363
133	9	2	-0.26574309	53.991871	12.115353	12.718806
134	9	2	-0.26574309	55.095344	12.809108	10.931958
135	9	2	-0.26574309	56.088767	11.520011	12.416008
136	10	1	0.53867169	35.007365	40.988183	63.223662
137	10	2	-0.26574303	33.739154	40.876899	63.742871
138	10	2	-0.26574303	35.78599	41.567116	64.188528
139	10	2	-0.26574303	34.930861	41.864848	62.173648
140	10	3	1.5785306	35.671165	39.267144	62.685137
141	10	4	-0.66341273	34.685624	38.711557	61.743374
142	10	4	-0.66341273	37.080364	39.420819	62.292175
143	10	5	-0.98629526	35.57492	38.286304	63.95103
144	10	3	1.5785306	36.578028	37.045243	63.770289
145	10	4	-0.66341273	36.547685	36.599438	62.369251
146	10	4	-0.66341273	37.843902	37.474024	64.384995
147	10	1	0.53867169	35.900702	35.59504	64.82482
148	10	2	-0.26574309	35.75561	35.953796	66.140566
149	10	2	-0.26574309	34.668305	35.191166	64.376535
150	10	2	-0.26574309	36.736727	34.511456	64.790139
151	11	1	0.53867169	24.437003	15.981718	35.182881
152	11	2	-0.26574303	25.011215	16.704445	36.193893
153	11	2	-0.26574303	24.411533	16.798854	34.079294
154	11	2	-0.26574303	23.131588	15.759952	35.538316
155	11	3	1.5785306	25.38146	14.343553	34.840403
156	11	4	-0.66341273	25.542331	13.660539	36.130648
157	11	4	-0.66341273	24.706304	13.710587	33.699312
158	11	5	-0.98629526	26.857493	14.718282	34.360905
159	11	3	1.5785306	27.812941	13.414159	34.346104
160	11	4	-0.66341273	27.054729	12.225332	33.937254
161	11	4	-0.66341273	28.877649	13.872802	33.436923
162	11	1	0.53867169	28.651567	13.111769	36.065538
163	11	2	-0.26574309	29.089761	14.294103	36.606207
164	11	2	-0.26574309	27.851088	12.516627	36.9998
165	11	2	-0.26574309	29.746687	12.299408	35.9536
166	12	1	0.53867169	58.199387	47.131715	31.549807
167	12	2	-0.26574303	56.969399	47.047701	32.148254
168	12	2	-0.26574303	59.131074	46.768141	32.485771
169	12	2	-0.26574303	58.421865	48.457384	31.28571
170	12	3	1.5785306	58.323865	46.057973	29.957881
171	12	4	-0.66341273	57.132401	46.348004	29.146516
172	12	4	-0.66341273	59.673276	46.281171	29.404135
173	12	5	-0.98629526	58.190565	44.519882	30.385263
174	12	3	1.5785306	58.780947	43.570061	29.235973
175	12	4	-0.66341273	58.328271	44.062161	27.926321
176	12	4	-0.66341273	60.225801	43.479872	29.510224
177	12	1	0.53867169	58.029881	41.81735	29.48693
178	12	2	-0.26574309	58.312368	41.323957	30.734613
179	12	2	-0.26574309	56.660075	41.82847	29.383125
180	12	2	-0.26574309	58.504701	40.919061	28.566973
181	13	1	0.53867169	18.431191	57.609992	59.601574
182	13	2	-0.26574303	19.171	57.204509	58.520064
183	13	2	-0.26574303	18.3174	58.974948	59.540801
184	13	2	-0.26574303	19.177819	57.321501	60.716515
185	13	3	1.5785306	16.717767	56.736364	59.68101
186	13	4	-0.66341273	16.967661	55.284209	59.632006
187	13	4	-0.66341273	16.000707	57.270169	60.852013
188	13	5	-0.98629526	15.878738	57.074947	58.35917
189	13	3	1.5785306	14.320625	56.80479	58.600903
190	13	4	-0.66341273	14.169123	55.515947	59.301953
191	13	4	-0.66341273	13.793858	58.030434	59.221745
192	13	1	0.53867169	13.442962	56.623025	56.897025
193	13	2	-0.26574309	13.540134	57.75279	56.12751
194	13	2	-0.26574309	13.949333	55.587215	56.162429
195	13	2	-0.26574309	12.1018	56.36713	57.040367
196	14	1	0.53867169	53.127027	38.457558	67.290864
197	14	2	-0.26574303	54.312773	38.159235	66.674509
198	14	2	-0.26574303	52.142973	38.334584	66.345987
199	14	2	-0.26574303	53.185482	39.776044	67.655048
200	14	3	1.5785306	52.826095	37.31122	68.799109
201	14	4	-0.66341273	54.063401	37.311895	69.599476
202	14	4	-0.66341273	51.553411	37.71668	69.421825
203	14	5	-0.98629526	52.675233	35.805261	68.266301
204	14	3	1.5785306	51.938176	34.896648	69.363513
205	14	4	-0.66341273	52.539411	35.183864	70.678477
206	14	4	-0.66341273	50.497375	35.13361	69.169941
207	14	1	0.53867169	52.284665	33.047945	68.969245
208	14	2	-0.26574309	51.747932	32.660844	67.773724
209	14	2	-0.26574309	53.624959	32.792289	68.8978
210	14	2	-0.26574309	51.775908	32.22244	69.936581
211	15	1	0.53867169	64.537134	15.666747	5.4910147
212	15	2	-0.26574303	64.298153	15.257711	6.780296
213	15	2	-0.26574303	65.175076	16.879308	5.5887794
214	15	2	-0.26574303	63.321295	15.906463	4.9058115
215	15	3	1.5785306	65.587134	14.385777	4.5012179
216	15	4	-0.66341273	64.790664	13.152622	4.4187024
217	15	4	-0.66341273	66.063962	15.080403	3.2940334
218	15	5	-0.98629526	66.872611	14.012389	5.3888232
219	15	3	1.5785306	68.000588	13.33375	4.4592881
220	15	4	-0.66341273	67.369785	12.45932	3.4608045
221	15	4	-0.66341273	68.842235	14.462734	4.0205827
222	15	1	0.53867169	69.105825	12.218212	5.5723608
223	15	2	-0.26574309	69.701471	12.933259	6.5841043
224	15	2	-0.26574309	68.389339	11.213429	6.1675733
225	15	2	-0.26574309	70.119557	11.63663	4.8558146
226	16	1	0.53867169	18.683679	17.948099	36.3008
227	16	2	-0.26574303	19.241005	19.195993	36.234338
228	16	2	-0.26574303	18.62937	17.60093	37.61101
229	16	2	-0.26574303	19.580737	17.083937	35.73092
230	16	3	1.5785306	16.980993	17.852366	35.389652
231	16	4	-0.66341273	17.236067	18.095349	33.962336
232	16	4	-0.66341273	16.31005	16.58064	35.692697
233	16	5	-0.98629526	15.986397	19.078301	35.731516
234	16	3	1.5785306	15.101024	18.754795	37.021849
235	16	4	-0.66341273	13.984231	17.935643	36.514456
236	16	4	-0.66341273	16.00958	18.214972	38.034265
237	16	1	0.53867169	14.354194	20.403905	37.645295
238	16	2	-0.26574309	15.319458	21.277082	38.06679
239	16	2	-0.26574309	13.666217	21.009459	36.624618
240	16	2	-0.26574309	13.446078	20.223415	38.651726
241	17	1	0.53867169	12.047544	31.261268	42.158704
242	17	2	-0.26574303	12.269267	30.077765	42.816954
243	17	2	-0.26574303	10.919276	31.112421	41.400013
244	17	2	-0.26574303	13.073275	31.426246	41.27214
245	17	3	1.5785306	11.907339	32.746336	43.361001
246	17	4	-0.66341273	13.144878	32.764876	44.157515
247	17	4	-0.66341273	11.472917	33.901844	42.556224
248	17	5	-0.98629526	10.763286	32.428048	44.438748
249	17	3	1.5785306	10.242325	33.79627	45.095224
250	17	4	-0.66341273	11.417389	34.604695	45.4634
251	17	4	-0.66341273	9.2377019	34.330301	44.159961
252	17	1	0.53867169	9.3392974	33.363819	46.727915
253	17	2	-0.26574309	8.3505684	32.436357	46.536169
254	17	2	-0.26574309	10.217012	32.838504	47.640924
255	17	2	-0.26574309	8.7691319	34.466505	47.307534
256	18	1	0.53867169	53.930583	16.878715	37.197182
257	18	2	-0.26574303	54.14917	16.396677	38.465073
258	18	2	-0.26574303	53.238597	15.904368	36.520624
259	18	2	-0.26574303	55.155101	16.997294	36.604154
260	18	3	1.5785306	52.963567	18.544201	37.253387
261	18	4	-0.66341273	53.711886	19.43794	38.151004
262	18	4	-0.66341273	52.632923	18.927128	35.871093
263	18	5	-0.98629526	51.570797	18.256246	38.000245
264	18	3	1.5785306	50.552368	19.479671	37.779768
265	18	4	-0.66341273	51.261702	20.75896	37.923489
266	18	4	-0.66341273	49.857192	19.157434	36.519749
267	18	1	0.53867169	49.232473	19.408095	39.175074
268	18	2	-0.26574309	48.499689	18.247968	39.124253
269	18	2	-0.26574309	49.804115	19.468582	40.418057
270	18	2	-0.26574309	48.341432	20.448215	39.096484
271	19	1	0.53867169	62.846804	24.898825	53.179331
272	19	2	-0.26574303	63.045435	24.71031	51.835594
273	19	2	-0.26574303	62.321343	26.152127	53.352928
274	19	2	-0.26574303	64.080935	24.900458	53.779235
275	19	3	1.5785306	61.723032	23.539152	53.937616
276	19	4	-0.66341273	62.311301	22.243319	53.56153
277	19	4	-0.66341273	61.546469	23.885381	55.360899
278	19	5	-0.98629526	60.302744	23.57091	53.200865
279	19	3	1.5785306	59.170327	22.939451	54.142404
280	19	4	-0.66341273	59.710526	21.745133	54.807868
281	19	4	-0.66341273	58.686471	24.050369	54.982677
282	19	1	0.53867169	57.70741	22.361534	53.037882
283	19	2	-0.26574309	57.150903	23.395565	52.333055
284	19	2	-0.26574309	58.091316	21.423333	52.119122
285	19	2	-0.26574309	56.719375	21.788087	53.787794
286	20	1	0.53867169	9.7227788	58.078423	13.230186
287	20	2	-0.26574303	10.03348	58.073816	11.896389
288	20	2	-0.26574303	9.371714	59.359908	13.572637
289	20	2	-0.26574303	10.895493	57.847199	13.897547
290	20	3	1.5785306	8.3808947	56.74489	13.680239
291	20	4	-0.66341273	9.0875667	55.460424	13.798984
292	20	4	-0.66341273	7.6102597	57.17464	14.857166
293	20	5	-0.98629526	7.3477232	56.413751	12.479552
294	20	3	1.5785306	6.3109118	57.614126	12.266661
295	20	4	-0.66341273	5.3143471	57.515893	13.344172
296	20	4	-0.66341273	7.1163815	58.834195	12.131215
297	20	1	0.53867169	5.382849	57.346988	10.605754
298	20	2	-0.26574309	6.247465	57.306995	9.5442396
299	20	2	-0.26574309	4.6774295	56.170936	10.601159
300	20	2	-0.26574309	4.4919136	58.360047	10.363343
301	21	1	0.53867169	69.828839	58.985591	14.789745
302	21	2	-0.26574303	70.773125	58.067198	14.41453
303	21	2	-0.26574303	68.921804	59.092345	13.767931
304	21	2	-0.26574303	70.454044	60.201273	14.855086
305	21	3	1.5785306	69.032741	58.530092	16.496499
306	21	4	-0.66341273	69.96747	58.926749	17.561378
307	21	4	-0.66341273	67.679534	59.098077	16.618441
308	21	5	-0.98629526	68.945594	56.940956	16.734278
309	21	3	1.5785306	67.646084	56.311998	16.063217
310	21	4	-0.66341273	66.592307	56.459265	17.083893
311	21	4	-0.66341273	67.472854	56.938057	14.74535
312	21	1	0.53867169	67.950244	54.42956	15.802751
313	21	2	-0.26574309	68.933902	54.193869	14.880306
314	21	2	-0.26574309	68.342204	53.813019	16.966481
315	21	2	-0.26574309	66.816916	53.790836	15.373049
316	22	1	0.53867169	31.807232	23.490298	67.980537
317	22	2	-0.26574303	32.197862	23.560941	66.670141
318	22	2	-0.26574303	31.115165	22.315185	68.119488
319	22	2	-0.26574303	30.918291	24.512208	68.185444
320	22	3	1.5785306	33.30708	23.594019	69.181948
321	22	4	-0.66341273	34.095137	24.769597	68.779287
322	22	4	-0.66341273	32.77714	23.481913	70.550122
323	22	5	-0.98629526	34.240744	22.316744	68.923941
324	22	3	1.5785306	35.292394	22.128611	70.124121
325	22	4	-0.66341273	35.892348	23.433199	70.440536
326	22	4	-0.66341273	34.555504	21.38608	71.161728
327	22	1	0.53867169	36.695507	20.969272	69.511204
328	22	2	-0.26574309	36.207917	19.737893	69.153209
329	22	2	-0.26574309	37.339826	21.486056	68.418827
330	22	2	-0.26574309	37.636468	20.756938	70.48532
331	23	1	0.53867169	67.725558	31.744351	71.513338
332	23	2	-0.26574303	67.534742	30.419726	71.820421
333	23	2	-0.26574303	68.278093	31.790912	70.260787
334	23	2	-0.26574303	68.661265	32.227964	72.390299
335	23	3	1.5785306	66.088986	32.750173	71.606669
336	23	4	-0.66341273	65.504484	32.517226	72.935672
337	23	4	-0.66341273	66.400485	34.123025	71.188574
338	23	5	-0.98629526	65.026412	32.118907	70.57754
339	23	3	1.5785306	63.898978	33.204393	70.206108
340	23	4	-0.66341273	63.4478	33.852577	71.449108
341	23	4	-0.66341273	64.459882	34.036365	69.130144
342	23	1	0.53867169	62.375445	32.271459	69.492035
343	23	2	-0.26574309	62.696323	31.528389	68.387423
344	23	2	-0.26574309	61.848054	31.403804	70.415292
345	23	2	-0.26574309	61.366343	33.132465	69.143224
346	24	1	0.53867169	67.138853	42.442594	58.365822
347	24	2	-0.26574303	66.711206	42.000804	59.591818
348	24	2	-0.26574303	66.779346	41.497006	57.44092
349	24	2	-0.26574303	68.510866	42.471333	58.403625
350	24	3	1.5785306	66.428313	44.176774	57.936406
351	24	4	-0.66341273	66.752105	45.075188	59.060502
352	24	4	-0.66341273	66.923738	44.53577	56.597047
353	24	5	-0.98629526	64.829149	44.099536	57.898054
354	24	3	1.5785306	64.222393	45.323081	57.057629
355	24	4	-0.66341273	64.929371	46.55736	57.450404
356	24	4	-0.66341273	64.262819	44.901075	55.648136
357	24	1	0.53867169	62.371755	45.54543	57.536578
358	24	2	-0.26574309	61.636167	44.41391	57.289996
359	24	2	-0.26574309	62.222362	45.846319	58.866396
360	24	2	-0.26574309	61.790671	46.565022	56.825271
361	25	1	0.53867169	45.08594	70.010581	9.9904197
362	25	2	-0.26574303	46.019821	71.001334	10.14593
363	25	2	-0.26574303	45.497551	69.229422	8.9420873
364	25	2	-0.26574303	43.919539	70.6178	9.5978075
365	25	3	1.5785306	44.844189	68.985577	11.602058
366	25	4	-0.66341273	44.602094	69.934344	12.699727
367	25	4	-0.66341273	43.83533	67.95042	11.319693
368	25	5	-0.98629526	46.234078	68.287215	11.989015
369	25	3	1.5785306	45.980449	66.994009	12.895184
370	25	4	-0.66341273	44.981074	67.343688	13.921149
371	25	4	-0.66341273	45.701628	65.89932	11.950419
372	25	1	0.53867169	47.606487	66.560583	13.822727
373	25	2	-0.26574309	48.636518	66.286888	12.960376
374	25	2	-0.26574309	48.00694	67.591515	14.634157
375	25	2	-0.26574309	47.441964	65.460558	14.623992
376	26	1	0.53867169	34.978313	-3.2933986	69.973168
377	26	2	-0.26574303	34.383941	-2.5343469	70.948696
378	26	2	-0.26574303	35.519521	-2.4447356	69.043126
379	26	2	-0.26574303	33.970532	-3.9530665	69.315763
380	26	3	1.5785306	36.244714	-4.5600614	70.726357
381	26	4	-0.66341273	35.469382	-5.7093006	71.226344
382	26	4	-0.66341273	37.296674	-4.8873931	69.748907
383	26	5	-0.98629526	36.93676	-4.0418446	72.092109
384	26	3	1.5785306	38.136127	-3.037318	71.772118
385	26	4	-0.66341273	39.301138	-3.9034522	71.52307
386	26	4	-0.66341273	37.658272	-2.1065241	70.74409
387	26	1	0.53867169	38.511436	-2.0144098	73.359785
388	26	2	-0.26574309	37.427998	-1.2739998	73.757114
389	26	2	-0.26574309	38.853083	-2.8221372	74.416838
390	26	2	-0.26574309	39.552522	-1.1420187	73.16895
391	27	1	0.53867169	19.307745	31.927245	75.277429
392	27	2	-0.26574303	18.431511	32.054827	76.321697
393	27	2	-0.26574303	18.55317	31.586828	74.180965
394	27	2	-0.26574303	20.122941	30.861409	75.552249
395	27	3	1.5785306	20.309064	33.5444	74.982538
396	27	4	-0.66341273	20.909553	33.940158	76.260839
397	27	4	-0.66341273	21.144266	33.333933	73.790956
398	27	5	-0.98629526	19.279522	34.697232	74.578357
399	27	3	1.5785306	19.947369	36.148369	74.799814
400	27	4	-0.66341273	21.336329	36.142826	74.312878
401	27	4	-0.66341273	19.035914	36.992505	74.008384
402	27	1	0.53867169	19.881692	36.771665	76.637096
403	27	2	-0.26574309	18.796536	36.272838	77.308059
404	27	2	-0.26574309	21.005838	36.468964	77.35868
405	27	2	-0.26574309	19.794803	38.140135	76.672845
406	28	1	0.53867169	10.123659	4.338707	21.323681
407	28	2	-0.26574303	9.8405117	3.0205616	21.074259
408	28	2	-0.26574303	9.3609685	5.0822502	20.460992
409	28	2	-0.26574303	11.43418	4.545612	20.971837
410	28	3	1.5785306	9.8040295	4.8149037	23.162408
411	28	4	-0.66341273	10.566766	3.8674337	23.988791
412	28	4	-0.66341273	10.069577	6.2599605	23.284397
413	28	5	-0.98629526	8.2530218	4.5635602	23.495569
414	28	3	1.5785306	7.8427142	5.3046161	24.858925
415	28	4	-0.66341273	8.859629	5.0177151	25.881627
416	28	4	-0.66341273	7.5889581	6.7091691	24.492872
417	28	1	0.53867169	6.179387	4.557372	25.484838
418	28	2	-0.26574309	5.1775306	4.6473885	24.548318
419	28	2	-0.26574309	6.3022846	3.2288212	25.798686
420	28	2	-0.26574309	5.7320118	5.1965284	26.612754
421	29	1	0.53867169	66.251292	54.207597	25.36756
422	29	2	-0.26574303	66.80347	53.550358	24.297321
423	29	2	-0.26574303	66.681147	53.574338	26.504586
424	29	2	-0.26574303	64.893594	54.036498	25.282366
425	29	3	1.5785306	66.717424	56.068664	25.343881
426	29	4	-0.66341273	66.512194	56.53573	23.960884
427	29	4	-0.66341273	65.971212	56.723781	26.424572
428	29	5	-0.98629526	68.299584	56.211967	25.608809
429	29	3	1.5785306	68.6585	57.70503	26.075964
430	29	4	-0.66341273	68.088598	58.625326	25.074005
431	29	4	-0.66341273	68.286428	57.815728	27.491589
432	29	1	0.53867169	70.575118	57.916589	25.991869
433	29	2	-0.26574309	71.247311	57.040319	26.80449
434	29	2	-0.26574309	71.062508	57.708716	24.728954
435	29	2	-0.26574309	70.975714	59.177895	26.34691
436	30	1	0.53867169	65.472794	50.09994	25.265756
437	30	2	-0.26574303	64.954844	51.082835	24.469848
438	30	2	-0.26574303	64.59414	49.048028	25.225484
439	30	2	-0.26574303	65.472417	50.564141	26.552987
440	30	3	1.5785306	67.233987	49.564013	24.712842
441	30	4	-0.66341273	68.09629	50.755925	24.665952
442	30	4	-0.66341273	67.641029	48.459396	25.59227
443	30	5	-0.98629526	67.174358	49.05232	23.190086
444	30	3	1.5785306	68.331966	47.976913	22.918937
445	30	4	-0.66341273	69.589486	48.544059	23.444803
446	30	4	-0.66341273	67.80983	46.701899	23.439169
447	30	1	0.53867169	68.554001	47.770109	21.016157
448	30	2	-0.26574309	67.379489	47.433205	20.393374
449	30	2	-0.26574309	69.0063	48.922429	20.424521
450	30	2	-0.26574309	69.467368	46.792483	20.719314
451	31	1	0.53867169	25.590434	15.202399	18.897965
452	31	2	-0.26574303	26.033876	14.862105	20.14904
453	31	2	-0.26574303	24.734218	14.222565	18.46998
454	31	2	-0.26574303	26.676657	15.17503	18.060757
455	31	3	1.5785306	24.752641	16.929643	18.871757
456	31	4	-0.66341273	25.743809	17.899275	19.374826
457	31	4	-0.66341273	24.180369	17.092419	17.527761
458	31	5	-0.98629526	23.571136	16.945511	19.953878
459	31	3	1.5785306	22.547545	18.140301	19.641906
460	31	4	-0.66341273	23.340478	19.364125	19.437904
461	31	4	-0.66341273	21.647494	17.65888	18.586625
462	31	1	0.53867169	21.487	18.424027	21.215525
463	31	2	-0.26574309	20.85552	17.278997	21.62575
464	31	2	-0.26574309	22.266695	18.846687	22.263656
465	31	2	-0.26574309	20.526006	19.37729	21.012716
466	32	1	0.53867169	52.865644	54.527712	35.857906
467	32	2	-0.26574303	53.961382	53.821874	36.282375
468	32	2	-0.26574303	52.456784	53.98582	34.671011
469	32	2	-0.26574303	53.310518	55.788236	35.55485
470	32	3	1.5785306	51.474776	54.599705	37.210553
471	32	4	-0.66341273	51.946621	55.491533	38.28512
472	32	4	-0.66341273	50.192094	54.994307	36.59904
473	32	5	-0.98629526	51.312852	53.208494	38.002622
474	32	3	1.5785306	50.296946	52.229733	37.247643
475	32	4	-0.66341273	48.958921	52.656946	37.677701
476	32	4	-0.66341273	50.640097	52.270412	35.8198
477	32	1	0.53867169	50.580606	50.432453	37.872434
478	32	2	-0.26574309	51.87974	50.037851	37.702081
479	32	2	-0.26574309	50.318336	50.309558	39.209192
480	32	2	-0.26574309	49.77541	49.535561	37.21729
481	33	1	0.53867169	11.636143	7.9822046	35.422571
482	33	2	-0.26574303	10.393578	7.5124532	35.075564
483	33	2	-0.26574303	12.321146	8.1515437	34.250541
484	33	2	-0.26574303	12.255243	6.971398	36.10697
485	33	3	1.5785306	11.520118	9.5974267	36.471496
486	33	4	-0.66341273	10.662997	9.2922765	37.630384
487	33	4	-0.66341273	12.890356	10.088537	36.673441
488	33	5	-0.98629526	10.751337	10.708297	35.603075
489	33	3	1.5785306	10.287596	11.92969	36.540666
490	33	4	-0.66341273	8.9898282	11.512749	37.101736
491	33	4	-0.66341273	11.382384	12.290268	37.457318
492	33	1	0.53867169	9.9437654	13.465225	35.442517
493	33	2	-0.26574309	11.057419	13.885021	34.773748
494	33	2	-0.26574309	8.9812511	13.212209	34.497623
495	33	2	-0.26574309	9.5244712	14.523582	36.205847
496	34	1	0.53867169	14.197869	35.647137	13.767951
497	34	2	-0.26574303	15.154673	36.078637	14.651357
498	34	2	-0.26574303	14.121242	36.580565	12.76642
499	34	2	-0.26574303	12.998953	35.669827	14.434805
500	34	3	1.5785306	14.58877	33.887887	13.090676
501	34	4	-0.66341273	14.770973	33.000824	14.253088
502	34	4	-0.66341273	13.55063	33.555567	12.103043
503	34	5	-0.98629526	16.017835	33.919165	12.363844
504	34	3	1.5785306	16.1655	32.685101	11.354643
505	34	4	-0.66341273	15.750477	31.459808	12.061433
506	34	4	-0.66341273	15.475165	33.065941	10.114113
507	34	1	0.53867169	18.028195	32.464356	10.933819
508	34	2	-0.26574309	18.567803	33.572619	10.336149
509	34	2	-0.26574309	18.769635	32.211964	12.060468
510	34	2	-0.26574309	18.224401	31.398044	10.094454
511	35	1	0.53867169	36.136329	33.102055	12.305487
512	35	2	-0.26574303	35.382664	31.97315	12.116795
513	35	2	-0.26574303	35.677378	34.073074	11.45135
514	35	2	-0.26574303	37.396219	32.796431	11.861761
515	35	3	1.5785306	36.176398	33.666205	14.16346
516	35	4	-0.66341273	37.381995	33.083954	14.774002
517	35	4	-0.66341273	36.056855	35.12933	14.273928
518	35	5	-0.98629526	35.0142	32.992868	15.0472
519	35	3	1.5785306	33.6127	33.710685	14.776937
520	35	4	-0.66341273	33.565376	34.816983	15.751332
521	35	4	-0.66341273	33.529363	33.993895	13.338174
522	35	1	0.53867169	32.195427	32.487211	15.209795
523	35	2	-0.26574309	32.173083	31.412702	14.359574
524	35	2	-0.26574309	32.326365	31.995234	16.48067
525	35	2	-0.26574309	30.968208	33.095036	15.134394
526	36	1	0.53867169	49.456892	67.390366	50.748367
527	36	2	-0.26574303	49.961734	68.339953	51.588225
528	36	2	-0.26574303	49.595723	66.173716	51.359348
529	36	2	-0.26574303	50.289183	67.380972	49.657245
530	36	3	1.5785306	47.618871	67.673492	50.187373
531	36	4	-0.66341273	47.3944	69.072766	49.774547
532	36	4	-0.66341273	47.341437	66.669211	49.14382
533	36	5	-0.98629526	46.554604	67.248187	51.311545
534	36	3	1.5785306	46.284533	68.442168	52.331214
535	36	4	-0.66341273	45.225606	69.244156	51.703844
536	36	4	-0.66341273	47.575002	69.066472	52.632027
537	36	1	0.53867169	45.585222	67.726154	53.972483
538	36	2	-0.26574309	45.410018	68.701606	54.915547
539	36	2	-0.26574309	44.373059	67.109218	53.798523
540	36	2	-0.26574309	46.427741	66.80747	54.527864
541	37	1	0.53867169	36.137123	69.105039	26.943591
542	37	2	-0.26574303	35.071602	69.039845	27.802444
543	37	2	-0.26574303	37.193825	68.436251	27.510836
544	37	2	-0.26574303	36.521385	70.418544	26.888235
545	37	3	1.5785306	35.688164	68.428273	25.178747
546	37	4	-0.66341273	35.26989	69.568162	24.345589
547	37	4	-0.66341273	36.79636	67.630482	24.629364
548	37	5	-0.98629526	34.369438	67.508197	25.167375
549	37	3	1.5785306	34.651902	66.068134	25.80714
550	37	4	-0.66341273	35.018482	65.21524	24.667013
551	37	4	-0.66341273	35.620747	66.216083	26.902254
552	37	1	0.53867169	33.006525	65.389719	26.545186
553	37	2	-0.26574309	32.489529	66.217947	27.505095
554	37	2	-0.26574309	32.0433	65.248547	25.580232