Title

13530 atoms
13230 bonds
24090 angles
37920 dihedrals
4050 impropers

12 atom types
12 bond types
9 angle types
29 dihedral types
4 improper types
-8.284958601 71.7150414 xlo xhi
-6.385270953 73.61472905 ylo yhi
-12.85290241 67.14709759 zlo zhi
0.0 0.0 0.0 xy xz yz

Masses

1	12.01078
2	18.998403
3	32.0655
4	15.99943
5	14.00672
6	12.01078
7	1.007947
8	1.007947
9	1.007947
10	1.007947
11	1.007947
12	15.99943


Pair Coeffs

1	0.10884061	3.3795318
2	0.061	3.1181455
3	0.25	3.5635949
4	0.2102061	3.0398122
5	0.16769152	3.206876
6	0.086879315	3.4806469
7	0.015779483	2.6445434
8	0.016409246	2.5832257
9	0.013106998	2.4536265
10	0.0157	1.9599772
11	0.014797445	2.4419228
12	0.16846514	3.0251065

Bond Coeffs

1 harmonic	287.91882093395	1.359315559786
2 harmonic	156.8711507117	1.812798632943
3 harmonic	608.035974961	1.469758533467
4 harmonic	239.8447873633	1.642019753341
5 harmonic	215.30139056395	1.533627603844
6 harmonic	357.8191474159	1.094206460752
7 harmonic	225.97114073395	1.477375101044
8 harmonic	329.26307138675	1.389502949007
9 harmonic	452.0241811971	1.373209032276
10 harmonic	386.4399368291	1.08603610657
11 harmonic	505.163639116	1.309372378949
12 harmonic	227.0371466687	1.436323905911


Angle Coeffs

1 harmonic	119.7125597221	107.2128707706
2 harmonic	66.75631831595	109.9380527584
3 harmonic	124.0884341307	113.2116558678
4 harmonic	94.25109102650001	120.4494266916
5 harmonic	79.47831834420001	121.7705343867
6 harmonic	91.51855890415	108.1730591511
7 harmonic	50.901762366	124.801611398
8 harmonic	36.776637850755	108.3543135269
9 harmonic	119.8958895535	112.8736161145


Dihedral Coeffs

1 fourier 1	-1.572239594429	1	180
2 fourier 1	0.316444679891	2	0
3 fourier 1	0.1426731536269	3	0
4 fourier 1	0.2057583936885	3	0
5 fourier 1	0.3549667638131	3	0
6 fourier 1	0.2399307824079	2	180
7 fourier 1	0.9156101580834	1	180
8 fourier 1	0.0985377828486	3	0
9 fourier 1	0.143904881748	3	0
10 fourier 1	0.3215160932459	2	0
11 fourier 1	0.2510071310501	3	0
12 fourier 1	-0.1108037280545	4	180
13 fourier 1	-0.2219080374426	3	180
14 fourier 1	0.8434650381516	2	0
15 fourier 1	-0.1523281600983	1	0
16 fourier 1	1.469128273675	2	180
17 fourier 1	4.626306460904	2	180
18 fourier 1	1.012490953194	2	180
19 fourier 1	1.409955177277	2	180
20 fourier 1	1.079567853188	2	180
21 fourier 1	1.601769915929	1	0
22 fourier 1	0.2279946533057	3	0
23 fourier 1	0.3102287948961	3	0
24 fourier 1	-0.04857068407726	2	180
25 fourier 1	0.2631113656674667	3	0
26 fourier 1	-0.01533770820035	3	0
27 fourier 1	0.4191503124266	2	0
28 fourier 1	0.1311347012225	3	0
29 fourier 1	0.436546671918	1	0


Improper Coeffs

1 5.335286357863333	-1	2
2 1.743596855104667	-1	2
3 3.374156584723333	-1	2
4 0.4187541668506667	-1	2


Atoms

1	1	1	0.53867169	62.622943	66.451216	47.989192
2	1	2	-0.26574303	62.378707	67.301946	46.945734
3	1	2	-0.26574303	62.910404	67.232885	49.079456
4	1	2	-0.26574303	63.765168	65.746155	47.704153
5	1	3	1.5785306	61.138873	65.274901	48.330722
6	1	4	-0.66341273	60.695486	64.715734	47.051454
7	1	4	-0.66341273	61.539493	64.358273	49.415178
8	1	5	-0.98629526	59.941573	66.136684	48.944974
9	1	3	1.5785306	58.523068	65.44837	48.634453
10	1	4	-0.66341273	58.616595	64.021916	48.991141
11	1	4	-0.66341273	57.654042	66.256952	49.50099
12	1	1	0.53867169	57.937393	65.686698	46.79903
13	1	2	-0.26574309	58.60703	66.713781	46.185679
14	1	2	-0.26574309	58.076973	64.546905	46.047506
15	1	2	-0.26574309	56.607618	65.998917	46.741967
16	2	1	0.53867169	45.215878	86.934528	23.21099
17	2	2	-0.26574303	46.500931	87.363214	22.993453
18	2	2	-0.26574303	45.305576	85.75635	23.91217
19	2	2	-0.26574303	44.666395	86.614027	21.998649
20	2	3	1.5785306	44.147725	88.226881	24.160137
21	2	4	-0.66341273	44.388533	89.552603	23.568931
22	2	4	-0.66341273	42.77719	87.684622	24.204104
23	2	5	-0.98629526	44.701924	88.307762	25.664713
24	2	3	1.5785306	43.576436	88.886719	26.648242
25	2	4	-0.66341273	42.888269	89.999571	25.975084
26	2	4	-0.66341273	42.818828	87.689171	27.061415
27	2	1	0.53867169	44.431934	89.595366	28.220031
28	2	2	-0.26574309	45.178938	88.639402	28.862431
29	2	2	-0.26574309	45.275259	90.634375	27.92191
30	2	2	-0.26574309	43.516788	90.064602	29.127474
31	3	1	0.53867169	10.174201	55.840058	74.08474
32	3	2	-0.26574303	8.987155	55.320878	73.639154
33	3	2	-0.26574303	10.764372	54.881778	74.871593
34	3	2	-0.26574303	9.8752576	56.904316	74.8915
35	3	3	1.5785306	11.322346	56.358004	72.631869
36	3	4	-0.66341273	10.517403	57.129388	71.668596
37	3	4	-0.66341273	12.52697	56.958599	73.225856
38	3	5	-0.98629526	11.741405	55.038123	71.810751
39	3	3	1.5785306	13.151699	55.261564	71.084671
40	3	4	-0.66341273	13.174686	56.608157	70.492926
41	3	4	-0.66341273	14.149076	54.844069	72.081356
42	3	1	0.53867169	13.265263	54.009137	69.634428
43	3	2	-0.26574309	13.173898	52.71666	70.078435
44	3	2	-0.26574309	12.253847	54.179168	68.724828
45	3	2	-0.26574309	14.445659	54.093771	68.950353
46	4	1	0.53867169	61.228814	68.879294	53.516822
47	4	2	-0.26574303	60.878572	68.492341	52.250133
48	4	2	-0.26574303	62.563109	69.199128	53.486557
49	4	2	-0.26574303	61.104498	67.775917	54.319844
50	4	3	1.5785306	60.173388	70.353823	54.147477
51	4	4	-0.66341273	58.761477	69.958229	54.04717
52	4	4	-0.66341273	60.752769	70.756412	55.436873
53	4	5	-0.98629526	60.323114	71.560426	53.09648
54	4	3	1.5785306	60.000029	72.961068	53.818202
55	4	4	-0.66341273	58.731399	72.796607	54.544935
56	4	4	-0.66341273	61.232705	73.344975	54.524946
57	4	1	0.53867169	59.68523	74.270978	52.447467
58	4	2	-0.26574309	60.779562	74.444757	51.641111
59	4	2	-0.26574309	58.644361	73.890905	51.634703
60	4	2	-0.26574309	59.362659	75.494242	52.974181
61	5	1	0.53867169	31.536999	76.834364	65.736971
62	5	2	-0.26574303	30.591769	76.469154	64.813738
63	5	2	-0.26574303	31.321602	76.083899	66.864796
64	5	2	-0.26574303	31.287754	78.14271	66.067939
65	5	3	1.5785306	33.323689	76.622477	65.055704
66	5	4	-0.66341273	33.421838	77.424679	63.820543
67	5	4	-0.66341273	34.252436	76.933227	66.154938
68	5	5	-0.98629526	33.531067	75.101752	64.590511
69	5	3	1.5785306	35.086944	74.722643	64.587817
70	5	4	-0.66341273	35.839093	75.840349	63.988481
71	5	4	-0.66341273	35.381982	74.289231	65.962267
72	5	1	0.53867169	35.351684	73.189468	63.446379
73	5	2	-0.26574309	34.622052	72.100406	63.850207
74	5	2	-0.26574309	35.003512	73.443513	62.145414
75	5	2	-0.26574309	36.663842	72.783313	63.43183
76	6	1	0.53867169	8.3341587	79.944043	15.333279
77	6	2	-0.26574303	8.9434195	80.957489	16.030499
78	6	2	-0.26574303	8.075074	80.419912	14.073404
79	6	2	-0.26574303	7.1199822	79.724579	15.932983
80	6	3	1.5785306	9.4044948	78.341599	15.29128
81	6	4	-0.66341273	9.7425127	78.005133	16.683997
82	6	4	-0.66341273	8.6861515	77.357779	14.459021
83	6	5	-0.98629526	10.813061	78.682542	14.600763
84	6	3	1.5785306	11.493584	77.352257	14.023718
85	6	4	-0.66341273	11.364715	76.293235	15.039065
86	6	4	-0.66341273	10.892031	77.142057	12.694973
87	6	1	0.53867169	13.37029	77.674894	13.74994
88	6	2	-0.26574309	13.583522	78.708987	12.87569
89	6	2	-0.26574309	14.011593	77.997165	14.918761
90	6	2	-0.26574309	13.990426	76.569729	13.22596
91	7	1	0.53867169	32.216847	61.576734	38.290977
92	7	2	-0.26574303	32.965236	62.31904	37.415061
93	7	2	-0.26574303	32.8912	60.40585	38.506176
94	7	2	-0.26574303	31.06231	61.255145	37.624938
95	7	3	1.5785306	31.822014	62.593455	39.895253
96	7	4	-0.66341273	30.794668	63.585405	39.524455
97	7	4	-0.66341273	31.466453	61.705303	41.008644
98	7	5	-0.98629526	33.043909	63.549786	40.342121
99	7	3	1.5785306	34.093421	62.744012	41.246085
100	7	4	-0.66341273	33.536479	62.701726	42.607398
101	7	4	-0.66341273	34.368205	61.486688	40.53843
102	7	1	0.53867169	35.748119	63.727384	41.326208
103	7	2	-0.26574309	36.309729	63.88731	40.087442
104	7	2	-0.26574309	35.579708	64.981027	41.854186
105	7	2	-0.26574309	36.680093	63.077726	42.094769
106	8	1	0.53867169	68.72046	62.932005	24.986241
107	8	2	-0.26574303	70.078254	63.033757	24.821768
108	8	2	-0.26574303	68.528738	61.590056	25.161614
109	8	2	-0.26574303	68.229442	63.213062	23.744335
110	8	3	1.5785306	67.723308	64.046206	26.434312
111	8	4	-0.66341273	68.825736	66.104746	27.246957
112	8	4	-0.66341273	66.382666	64.070535	25.769777
113	8	5	-0.98629526	67.296486	62.780442	27.547054
114	8	3	1.5785306	65.886002	61.993432	27.326257
115	8	4	-0.66341273	64.819899	62.913852	27.765639
116	8	4	-0.66341273	65.876007	61.414204	25.968745
117	8	1	0.53867169	65.835147	60.522456	28.560667
118	8	2	-0.26574309	66.838126	59.624171	28.329885
119	8	2	-0.26574309	65.954237	60.944681	29.860618
120	8	2	-0.26574309	64.645023	59.843888	28.484333
121	9	1	0.53867169	58.993258	30.212803	22.676437
122	9	2	-0.26574303	57.679439	30.023208	23.027294
123	9	2	-0.26574303	59.172201	31.568241	22.578325
124	9	2	-0.26574303	59.16471	29.697273	21.419244
125	9	3	1.5785306	60.196996	29.418063	23.952742
126	9	4	-0.66341273	59.931479	27.972524	23.933775
127	9	4	-0.66341273	61.534724	29.967318	23.677707
128	9	5	-0.98629526	59.773359	29.930141	25.419683
129	9	3	1.5785306	60.947795	29.594581	26.478481
130	9	4	-0.66341273	61.558824	28.295488	26.172273
131	9	4	-0.66341273	61.768427	30.818787	26.473267
132	9	1	0.53867169	60.150948	29.477615	28.222611
133	9	2	-0.26574309	59.46116	30.630124	28.516161
134	9	2	-0.26574309	59.258189	28.442986	28.318255
135	9	2	-0.26574309	61.092243	29.309771	29.204142
136	10	1	0.53867169	42.713814	16.291928	36.390867
137	10	2	-0.26574303	41.701641	16.372423	35.468132
138	10	2	-0.26574303	43.183036	17.567784	36.565895
139	10	2	-0.26574303	43.687091	15.538144	35.786176
140	10	3	1.5785306	42.052774	15.522956	38.048651
141	10	4	-0.66341273	40.659733	15.9762	38.193905
142	10	4	-0.66341273	42.217503	14.05862	38.043137
143	10	5	-0.98629526	42.726893	16.139418	39.375753
144	10	3	1.5785306	44.207559	15.55987	39.578953
145	10	4	-0.66341273	44.032707	14.233625	40.186582
146	10	4	-0.66341273	44.871106	15.68172	38.275723
147	10	1	0.53867169	45.159888	16.695378	40.814161
148	10	2	-0.26574309	45.110602	18.007661	40.417967
149	10	2	-0.26574309	44.641075	16.649259	42.079859
150	10	2	-0.26574309	46.491623	16.375762	40.899668
151	11	1	0.53867169	57.690716	31.080723	58.655519
152	11	2	-0.26574303	56.872854	30.105193	58.148699
153	11	2	-0.26574303	56.947594	31.850827	59.509087
154	11	2	-0.26574303	58.015795	31.899927	57.60828
155	11	3	1.5785306	59.292765	30.322344	59.444056
156	11	4	-0.66341273	60.119901	29.805844	58.338041
157	11	4	-0.66341273	59.952502	31.297636	60.326233
158	11	5	-0.98629526	59.007373	28.965549	60.255709
159	11	3	1.5785306	58.56143	29.267781	61.757259
160	11	4	-0.66341273	59.800625	29.51637	62.510653
161	11	4	-0.66341273	57.52521	30.309348	61.688695
162	11	1	0.53867169	57.748756	27.685175	62.488542
163	11	2	-0.26574309	56.757932	27.205129	61.675162
164	11	2	-0.26574309	58.650198	26.667526	62.652106
165	11	2	-0.26574309	57.195373	27.939095	63.716979
166	12	1	0.53867169	22.990971	19.321721	58.235083
167	12	2	-0.26574303	21.855118	19.850799	58.78757
168	12	2	-0.26574303	22.644749	18.89912	56.98143
169	12	2	-0.26574303	23.288903	18.180108	58.931684
170	12	3	1.5785306	24.471047	20.576684	58.262143
171	12	4	-0.66341273	24.784307	20.849261	59.673691
172	12	4	-0.66341273	25.566602	20.04648	57.431908
173	12	5	-0.98629526	24.019532	22.04129	57.745371
174	12	3	1.5785306	24.277971	22.220604	56.18113
175	12	4	-0.66341273	25.723164	22.430706	56.009994
176	12	4	-0.66341273	23.606203	21.077878	55.54307
177	12	1	0.53867169	23.37028	23.819356	55.604167
178	12	2	-0.26574309	22.010243	23.690906	55.720568
179	12	2	-0.26574309	23.72113	24.911928	56.352019
180	12	2	-0.26574309	23.623917	24.11052	54.29121
181	13	1	0.53867169	46.847129	61.966896	12.365326
182	13	2	-0.26574303	47.130494	60.684657	12.761086
183	13	2	-0.26574303	45.657325	61.931968	11.684308
184	13	2	-0.26574303	47.815924	62.342281	11.474823
185	13	3	1.5785306	46.767535	63.163853	13.863473
186	13	4	-0.66341273	48.009157	62.978163	14.635726
187	13	4	-0.66341273	46.402845	64.49111	13.345358
188	13	5	-0.98629526	45.590968	62.674923	14.834752
189	13	3	1.5785306	45.167189	63.852959	15.837671
190	13	4	-0.66341273	46.392636	64.437776	16.411632
191	13	4	-0.66341273	44.222269	64.705548	15.094424
192	13	1	0.53867169	44.196134	63.067627	17.296665
193	13	2	-0.26574309	42.982273	62.572823	16.904693
194	13	2	-0.26574309	44.896302	62.036576	17.869328
195	13	2	-0.26574309	43.95587	63.979869	18.289614
196	14	1	0.53867169	23.742876	46.22488	54.92506
197	14	2	-0.26574303	23.139288	46.587167	56.105542
198	14	2	-0.26574303	24.975784	45.71486	55.230961
199	14	2	-0.26574303	23.937843	47.379708	54.218512
200	14	3	1.5785306	22.674375	44.986954	53.925915
201	14	4	-0.66341273	21.322181	45.569057	53.843808
202	14	4	-0.66341273	23.393145	44.700885	52.677155
203	14	5	-0.98629526	22.529366	43.64161	54.783201
204	14	3	1.5785306	22.163367	42.414103	53.824263
205	14	4	-0.66341273	21.06668	42.849326	52.946892
206	14	4	-0.66341273	23.44492	41.952848	53.263574
207	14	1	0.53867169	21.498032	40.982909	54.934087
208	14	2	-0.26574309	22.465332	40.516076	55.785408
209	14	2	-0.26574309	20.438914	41.372552	55.715518
210	14	2	-0.26574309	21.070805	39.909577	54.199176
211	15	1	0.53867169	62.988033	53.717084	67.489142
212	15	2	-0.26574303	63.922024	54.654083	67.859998
213	15	2	-0.26574303	61.751342	54.211316	67.814302
214	15	2	-0.26574303	63.206906	52.605734	68.259873
215	15	3	1.5785306	63.127999	53.292265	65.624242
216	15	4	-0.66341273	64.542155	52.959838	65.377011
217	15	4	-0.66341273	62.092447	52.295222	65.310717
218	15	5	-0.98629526	62.855754	54.626212	64.772902
219	15	3	1.5785306	62.439828	54.263749	63.267798
220	15	4	-0.66341273	63.38449	53.245597	62.780461
221	15	4	-0.66341273	60.994549	53.985419	63.3248
222	15	1	0.53867169	62.684569	55.833621	62.176223
223	15	2	-0.26574309	61.959848	56.899405	62.643304
224	15	2	-0.26574309	63.99931	56.231275	62.13995
225	15	2	-0.26574309	62.300878	55.614772	60.880151
226	16	1	0.53867169	14.576612	14.956757	53.683729
227	16	2	-0.26574303	14.442302	16.14486	53.012681
228	16	2	-0.26574303	14.552449	13.970404	52.729611
229	16	2	-0.26574303	13.449435	14.774727	54.435883
230	16	3	1.5785306	16.189115	14.866849	54.741979
231	16	4	-0.66341273	16.16978	15.963607	55.714698
232	16	4	-0.66341273	16.318249	13.480062	55.21791
233	16	5	-0.98629526	17.437533	15.176239	53.779669
234	16	3	1.5785306	18.798579	14.619557	54.419565
235	16	4	-0.66341273	18.853685	15.008633	55.83653
236	16	4	-0.66341273	18.858966	13.19289	54.058251
237	16	1	0.53867169	20.27972	15.481317	53.552976
238	16	2	-0.26574309	20.195463	15.412129	52.18863
239	16	2	-0.26574309	20.375521	16.80989	53.892202
240	16	2	-0.26574309	21.462102	14.893693	53.91727
241	17	1	0.53867169	80.871191	66.563783	1.4336726
242	17	2	-0.26574303	80.43355	65.268502	1.3080268
243	17	2	-0.26574303	80.896235	66.848264	2.7759635
244	17	2	-0.26574303	79.906116	67.364426	0.87340534
245	17	3	1.5785306	82.589636	66.831665	0.60269937
246	17	4	-0.66341273	82.468853	66.367154	-0.79004295
247	17	4	-0.66341273	82.989073	68.220649	0.88344656
248	17	5	-0.98629526	83.643322	65.833659	1.2892275
249	17	3	1.5785306	85.136957	66.370549	1.0670581
250	17	4	-0.66341273	85.283718	66.830626	-0.3234788
251	17	4	-0.66341273	85.396166	67.29003	2.187008
252	17	1	0.53867169	86.340294	64.879289	1.2858917
253	17	2	-0.26574309	86.231337	64.291592	2.5222299
254	17	2	-0.26574309	86.111984	63.886166	0.36669325
255	17	2	-0.26574309	87.656765	65.245104	1.1512539
256	18	1	0.53867169	51.392908	24.339609	68.612618
257	18	2	-0.26574303	51.81767	24.350302	67.309594
258	18	2	-0.26574303	52.353868	23.710959	69.360766
259	18	2	-0.26574303	50.264482	23.557398	68.650036
260	18	3	1.5785306	51.019158	26.110277	69.255557
261	18	4	-0.66341273	50.027757	26.688011	68.332629
262	18	4	-0.66341273	50.66268	25.989954	70.682054
263	18	5	-0.98629526	52.341666	27.008166	69.101777
264	18	3	1.5785306	52.283063	28.254285	70.101514
265	18	4	-0.66341273	50.945983	28.858011	69.983811
266	18	4	-0.66341273	52.748218	27.730777	71.397762
267	18	1	0.53867169	53.572249	29.573421	69.550757
268	18	2	-0.26574309	54.798069	29.019804	69.282203
269	18	2	-0.26574309	53.184242	30.234122	68.419242
270	18	2	-0.26574309	53.776798	30.523474	70.519605
271	19	1	0.53867169	48.280029	13.788099	44.154716
272	19	2	-0.26574303	49.237127	13.167783	44.912963
273	19	2	-0.26574303	48.833041	14.951793	43.68773
274	19	2	-0.26574303	47.269721	14.160835	45.001388
275	19	3	1.5785306	47.651305	12.653515	42.724009
276	19	4	-0.66341273	47.043638	11.464769	43.340669
277	19	4	-0.66341273	46.892276	13.497995	41.785994
278	19	5	-0.98629526	48.912706	12.091807	41.908469
279	19	3	1.5785306	48.449411	11.473262	40.49655
280	19	4	-0.66341273	47.111397	10.868292	40.601621
281	19	4	-0.66341273	48.657322	12.573166	39.537525
282	19	1	0.53867169	49.669137	10.076604	39.997339
283	19	2	-0.26574309	50.968928	10.508188	40.028811
284	19	2	-0.26574309	49.574823	8.9881092	40.822926
285	19	2	-0.26574309	49.427805	9.6497279	38.714249
286	20	1	0.53867169	53.731818	49.771776	32.425556
287	20	2	-0.26574303	53.325338	50.728726	31.535072
288	20	2	-0.26574303	53.88546	48.594675	31.728406
289	20	2	-0.26574303	52.717638	49.57365	33.3251
290	20	3	1.5785306	55.366678	50.246859	33.309536
291	20	4	-0.66341273	55.173759	51.546278	33.965845
292	20	4	-0.66341273	55.754404	49.070439	34.111252
293	20	5	-0.98629526	56.485815	50.498457	32.187252
294	20	3	1.5785306	57.947135	50.236673	32.775562
295	20	4	-0.66341273	58.039389	50.873909	34.10094
296	20	4	-0.66341273	58.121848	48.779745	32.637889
297	20	1	0.53867169	59.249916	51.063361	31.631327
298	20	2	-0.26574309	59.137893	50.623589	30.33747
299	20	2	-0.26574309	59.12859	52.428164	31.616473
300	20	2	-0.26574309	60.522494	50.76385	32.038946
301	21	1	0.53867169	45.880303	40.126672	20.199161
302	21	2	-0.26574303	45.49819	38.833201	20.446613
303	21	2	-0.26574303	44.961619	40.934968	20.807836
304	21	2	-0.26574303	45.763392	40.323825	18.846176
305	21	3	1.5785306	47.657299	40.470362	20.826976
306	21	4	-0.66341273	48.535881	39.506252	20.145159
307	21	4	-0.66341273	47.88085	41.918373	20.689869
308	21	5	-0.98629526	47.707438	40.071111	22.375236
309	21	3	1.5785306	48.911495	40.834136	23.107662
310	21	4	-0.66341273	50.104361	40.789251	22.245607
311	21	4	-0.66341273	48.356481	42.140899	23.5006
312	21	1	0.53867169	49.333296	39.881268	24.725573
313	21	2	-0.26574309	50.326629	40.507035	25.435512
314	21	2	-0.26574309	48.244267	39.778104	25.554686
315	21	2	-0.26574309	49.762297	38.604012	24.469116
316	22	1	0.53867169	44.997954	39.021742	62.99469
317	22	2	-0.26574303	45.230088	40.30879	62.594614
318	22	2	-0.26574303	46.153674	38.524535	63.547463
319	22	2	-0.26574303	44.800053	38.286524	61.853995
320	22	3	1.5785306	43.476419	38.876214	64.193521
321	22	4	-0.66341273	42.286034	38.578804	63.379254
322	22	4	-0.66341273	43.76586	37.907038	65.265479
323	22	5	-0.98629526	43.058105	40.274725	64.861126
324	22	3	1.5785306	44.039054	40.645809	66.066999
325	22	4	-0.66341273	43.459878	39.964166	67.236485
326	22	4	-0.66341273	45.405374	40.292511	65.651503
327	22	1	0.53867169	43.964238	42.5389	66.383805
328	22	2	-0.26574309	44.399276	43.251848	65.298786
329	22	2	-0.26574309	42.683325	42.947607	66.657658
330	22	2	-0.26574309	44.747014	42.893562	67.451029
331	23	1	0.53867169	64.438071	46.400928	39.345152
332	23	2	-0.26574303	64.735889	45.108805	39.692404
333	23	2	-0.26574303	64.510531	47.162995	40.480642
334	23	2	-0.26574303	63.129492	46.41181	38.93414
335	23	3	1.5785306	65.60482	47.054996	37.962949
336	23	4	-0.66341273	65.53256	46.105537	36.835501
337	23	4	-0.66341273	65.265155	48.46489	37.718167
338	23	5	-0.98629526	67.130251	46.973	38.454888
339	23	3	1.5785306	68.046246	47.975717	37.606301
340	23	4	-0.66341273	67.655973	47.871637	36.188078
341	23	4	-0.66341273	67.96041	49.272037	38.298302
342	23	1	0.53867169	69.871011	47.386036	37.712898
343	23	2	-0.26574309	70.331883	47.348328	39.002199
344	23	2	-0.26574309	70.018344	46.128697	37.1825
345	23	2	-0.26574309	70.698075	48.220019	37.00839
346	24	1	0.53867169	51.981473	33.707917	68.141108
347	24	2	-0.26574303	52.494416	32.73658	67.325931
348	24	2	-0.26574303	51.525059	34.69629	67.315311
349	24	2	-0.26574303	53.024855	34.23486	68.854389
350	24	3	1.5785306	50.571775	33.068476	69.279242
351	24	4	-0.66341273	51.154699	32.106299	70.226116
352	24	4	-0.66341273	49.872932	34.265144	69.782634
353	24	5	-0.98629526	49.529443	32.246919	68.378596
354	24	3	1.5785306	48.13282	32.095008	69.151807
355	24	4	-0.66341273	48.373404	31.845634	70.582628
356	24	4	-0.66341273	47.376313	33.298674	68.756018
357	24	1	0.53867169	47.180967	30.58136	68.443899
358	24	2	-0.26574309	46.970348	30.712523	67.097497
359	24	2	-0.26574309	47.835245	29.396517	68.638773
360	24	2	-0.26574309	45.942788	30.448256	69.017453
361	25	1	0.53867169	80.292854	4.10822	19.330064
362	25	2	-0.26574303	79.656477	4.0923363	20.545104
363	25	2	-0.26574303	79.572401	4.9289796	18.501405
364	25	2	-0.26574303	80.21946	2.8406927	18.814282
365	25	3	1.5785306	82.116137	4.6910059	19.497995
366	25	4	-0.66341273	82.760677	3.8615862	20.530846
367	25	4	-0.66341273	82.70875	4.7158596	18.147076
368	25	5	-0.98629526	82.127886	6.1662054	20.139146
369	25	3	1.5785306	83.414507	6.9819587	19.655683
370	25	4	-0.66341273	84.581194	6.1042786	19.858483
371	25	4	-0.66341273	83.085346	7.470926	18.306502
372	25	1	0.53867169	83.639851	8.5206336	20.786822
373	25	2	-0.26574309	82.544384	9.342128	20.763953
374	25	2	-0.26574309	83.843784	8.1650358	22.094235
375	25	2	-0.26574309	84.717522	9.2728376	20.399251
376	26	1	0.53867169	0.73337555	23.116958	68.467259
377	26	2	-0.26574303	-0.037221545	23.944225	67.691894
378	26	2	-0.26574303	1.5875877	22.452834	67.621837
379	26	2	-0.26574303	-0.10586529	22.182741	69.020715
380	26	3	1.5785306	1.7000292	24.090509	69.814014
381	26	4	-0.66341273	0.73202081	24.890218	70.5721
382	26	4	-0.66341273	2.581054	23.13781	70.500197
383	26	5	-0.98629526	2.6411983	25.153644	69.09482
384	26	3	1.5785306	3.6979353	25.780804	70.145278
385	26	4	-0.66341273	4.8191467	24.826314	70.195699
386	26	4	-0.66341273	4.0203786	27.06784	69.504533
387	26	1	0.53867169	3.0546308	26.166792	71.944714
388	26	2	-0.26574309	1.9989014	27.040961	71.946659
389	26	2	-0.26574309	2.7020177	25.056281	72.664886
390	26	2	-0.26574309	4.0469736	26.774516	72.67025
391	27	1	0.53867169	31.246212	58.09453	12.719504
392	27	2	-0.26574303	32.575476	58.377385	12.526716
393	27	2	-0.26574303	31.130414	56.743293	12.571136
394	27	2	-0.26574303	30.554879	58.672333	11.690212
395	27	3	1.5785306	30.653734	58.668742	14.460069
396	27	4	-0.66341273	30.987411	60.090961	14.600755
397	27	4	-0.66341273	29.270456	58.210516	14.663631
398	27	5	-0.98629526	31.535406	57.880163	15.540969
399	27	3	1.5785306	31.497371	58.606925	16.975142
400	27	4	-0.66341273	30.188971	59.246264	17.192117
401	27	4	-0.66341273	31.825356	57.474842	17.861656
402	27	1	0.53867169	32.948396	59.873838	17.16938
403	27	2	-0.26574309	34.138131	59.293137	16.798965
404	27	2	-0.26574309	32.8161	61.018167	16.440331
405	27	2	-0.26574309	33.096766	60.243711	18.479394
406	28	1	0.53867169	12.672999	49.360194	25.307198
407	28	2	-0.26574303	12.234905	48.756185	24.15797
408	28	2	-0.26574303	13.92553	49.871449	25.075643
409	28	2	-0.26574303	12.840713	48.368711	26.23714
410	28	3	1.5785306	11.41583	50.697398	25.938618
411	28	4	-0.66341273	10.43221	50.03686	26.81179
412	28	4	-0.66341273	12.118047	51.825294	26.579573
413	28	5	-0.98629526	10.454113	51.272917	24.77824
414	28	3	1.5785306	11.219625	52.37329	23.911057
415	28	4	-0.66341273	11.026235	53.610325	24.683013
416	28	4	-0.66341273	12.561463	51.832104	23.653722
417	28	1	0.53867169	10.314085	52.58781	22.225969
418	28	2	-0.26574309	10.202615	51.40326	21.548522
419	28	2	-0.26574309	9.0400928	53.080826	22.383382
420	28	2	-0.26574309	10.965717	53.458486	21.396813
421	29	1	0.53867169	47.100945	68.260803	25.633163
422	29	2	-0.26574303	48.32078	67.998986	26.196668
423	29	2	-0.26574303	46.167665	67.76958	26.499887
424	29	2	-0.26574303	46.930509	69.618411	25.615838
425	29	3	1.5785306	46.915956	67.470131	23.88907
426	29	4	-0.66341273	47.041597	66.014919	24.063363
427	29	4	-0.66341273	45.691676	68.022299	23.279395
428	29	5	-0.98629526	48.161221	67.908549	22.99298
429	29	3	1.5785306	47.865734	67.665462	21.440792
430	29	4	-0.66341273	47.149224	66.389761	21.260519
431	29	4	-0.66341273	47.213373	68.897438	20.967298
432	29	1	0.53867169	49.540081	67.524681	20.517299
433	29	2	-0.26574309	50.356021	68.601189	20.752599
434	29	2	-0.26574309	50.212841	66.389136	20.87019
435	29	2	-0.26574309	49.352469	67.477388	19.164016
436	30	1	0.53867169	80.308561	20.923114	38.052826
437	30	2	-0.26574303	81.139145	21.179991	39.106328
438	30	2	-0.26574303	79.198303	20.291243	38.556411
439	30	2	-0.26574303	80.9589	20.032511	37.23634
440	30	3	1.5785306	79.834719	22.529714	37.120481
441	30	4	-0.66341273	81.087132	23.231013	36.787503
442	30	4	-0.66341273	78.888636	22.136872	36.06627
443	30	5	-0.98629526	79.077702	23.507273	38.154314
444	30	3	1.5785306	78.13849	24.534662	37.351778
445	30	4	-0.66341273	78.862853	25.010443	36.161046
446	30	4	-0.66341273	76.858344	23.814197	37.247365
447	30	1	0.53867169	77.829342	26.071737	38.461056
448	30	2	-0.26574309	77.260213	25.722239	39.659746
449	30	2	-0.26574309	78.996706	26.734188	38.73719
450	30	2	-0.26574309	76.98987	26.970601	37.855532
451	31	1	0.53867169	27.184031	56.368704	33.481197
452	31	2	-0.26574303	27.215638	57.732282	33.348956
453	31	2	-0.26574303	27.856247	56.059246	34.633312
454	31	2	-0.26574303	27.899067	55.854235	32.432175
455	31	3	1.5785306	25.385835	55.691571	33.508606
456	31	4	-0.66341273	24.655387	56.336646	32.406106
457	31	4	-0.66341273	25.474024	54.223366	33.57197
458	31	5	-0.98629526	24.644582	56.225901	34.833748
459	31	3	1.5785306	23.436677	55.239978	35.225656
460	31	4	-0.66341273	22.717724	54.861975	33.997235
461	31	4	-0.66341273	24.053495	54.207668	36.07461
462	31	1	0.53867169	22.207041	56.229882	36.322985
463	31	2	-0.26574309	22.797906	56.663318	37.482164
464	31	2	-0.26574309	21.753833	57.354593	35.680356
465	31	2	-0.26574309	21.113212	55.483508	36.671767
466	32	1	0.53867169	29.210529	30.83153	59.076385
467	32	2	-0.26574303	28.195722	30.828109	58.159537
468	32	2	-0.26574303	28.807089	31.543477	60.172305
469	32	2	-0.26574303	30.22047	31.56287	58.508773
470	32	3	1.5785306	29.810591	29.054503	59.575806
471	32	4	-0.66341273	31.197028	28.918023	59.099479
472	32	4	-0.66341273	29.613459	28.835659	61.021018
473	32	5	-0.98629526	29.040961	27.903049	58.775811
474	32	3	1.5785306	27.588403	27.638447	59.385824
475	32	4	-0.66341273	27.769351	26.625931	60.440102
476	32	4	-0.66341273	27.018085	28.933804	59.789281
477	32	1	0.53867169	26.46312	26.893411	58.020573
478	32	2	-0.26574309	25.215821	26.626031	58.513141
479	32	2	-0.26574309	26.303492	27.756329	56.96835
480	32	2	-0.26574309	26.962993	25.717986	57.52564
481	33	1	0.53867169	53.710012	39.025981	45.85155
482	33	2	-0.26574303	54.742694	39.779673	45.354238
483	33	2	-0.26574303	54.228091	37.864377	46.361694
484	33	2	-0.26574303	52.947516	38.644843	44.777169
485	33	3	1.5785306	52.637591	40.028	47.120581
486	33	4	-0.66341273	51.710553	40.861125	46.332059
487	33	4	-0.66341273	52.015171	39.113152	48.095598
488	33	5	-0.98629526	53.47846	41.161304	47.903318
489	33	3	1.5785306	54.308352	40.518107	49.106836
490	33	4	-0.66341273	53.369946	40.37468	50.231152
491	33	4	-0.66341273	54.966841	39.318681	48.577394
492	33	1	0.53867169	55.691309	41.730466	49.667673
493	33	2	-0.26574309	56.582928	41.988025	48.659463
494	33	2	-0.26574309	55.185127	42.933068	50.088353
495	33	2	-0.26574309	56.405525	41.203108	50.713711
496	34	1	0.53867169	69.715772	18.125732	42.333355
497	34	2	-0.26574303	69.462652	16.976178	41.627579
498	34	2	-0.26574303	70.726852	18.784193	41.677427
499	34	2	-0.26574303	70.206342	17.745795	43.55576
500	34	3	1.5785306	68.136477	19.213942	42.504187
501	34	4	-0.66341273	67.085261	18.381339	43.119593
502	34	4	-0.66341273	68.535619	20.472894	43.147678
503	34	5	-0.98629526	67.574677	19.518268	41.031523
504	34	3	1.5785306	66.68519	20.849714	41.040754
505	34	4	-0.66341273	65.743666	20.759335	42.171798
506	34	4	-0.66341273	67.62557	21.972692	40.92494
507	34	1	0.53867169	65.614772	20.847614	39.442527
508	34	2	-0.26574309	66.366382	20.936606	38.299437
509	34	2	-0.26574309	64.871583	19.700992	39.335167
510	34	2	-0.26574309	64.723368	21.890035	39.414988
511	35	1	0.53867169	46.133156	8.6905026	19.371258
512	35	2	-0.26574303	45.695586	8.5804844	18.077426
513	35	2	-0.26574303	46.649041	7.4675184	19.720273
514	35	2	-0.26574303	45.034213	8.9237946	20.155861
515	35	3	1.5785306	47.445197	10.07907	19.56388
516	35	4	-0.66341273	46.864123	11.315119	19.016837
517	35	4	-0.66341273	47.917743	10.055221	20.957832
518	35	5	-0.98629526	48.693075	9.7230458	18.623481
519	35	3	1.5785306	49.986782	10.576314	19.053644
520	35	4	-0.66341273	49.574132	11.942145	19.425957
521	35	4	-0.66341273	50.655141	9.7336578	20.055912
522	35	1	0.53867169	51.153431	10.699253	17.528702
523	35	2	-0.26574309	51.422396	9.4607896	16.999198
524	35	2	-0.26574309	50.60071	11.457841	16.529577
525	35	2	-0.26574309	52.35395	11.271846	17.845762
526	36	1	0.53867169	14.345638	4.4676158	52.166228
527	36	2	-0.26574303	15.370086	4.8979336	52.965941
528	36	2	-0.26574303	13.187071	4.5936561	52.888517
529	36	2	-0.26574303	14.539167	3.1332964	51.928582
530	36	3	1.5785306	14.258595	5.4642826	50.529923
531	36	4	-0.66341273	15.602316	5.4491067	49.9297
532	36	4	-0.66341273	13.122674	4.9340171	49.756479
533	36	5	-0.98629526	13.973742	7.0127404	50.875068
534	36	3	1.5785306	13.341693	7.755549	49.588304
535	36	4	-0.66341273	14.106169	7.3386699	48.398004
536	36	4	-0.66341273	11.900225	7.4754095	49.666705
537	36	1	0.53867169	13.576453	9.649092	49.833803
538	36	2	-0.26574309	13.064146	10.053608	51.038909
539	36	2	-0.26574309	14.900641	9.9907058	49.856343
540	36	2	-0.26574309	12.978203	10.38474	48.851256
541	37	1	0.53867169	29.905937	27.29249	50.954118
542	37	2	-0.26574303	30.20262	26.510422	49.866958
543	37	2	-0.26574303	30.109699	26.519983	52.068481
544	37	2	-0.26574303	28.564005	27.569158	50.899692
545	37	3	1.5785306	30.957997	28.907344	50.983219
546	37	4	-0.66341273	30.768063	29.581146	49.688063
547	37	4	-0.66341273	30.631726	29.634798	52.219877