Title

12720 atoms
12420 bonds
22560 angles
34680 dihedrals
2700 impropers

12 atom types
12 bond types
9 angle types
29 dihedral types
4 improper types
-4.281068146 75.71893185 xlo xhi
-5.496243238 74.50375676 ylo yhi
-1.383016109 78.61698389 zlo zhi
0.0 0.0 0.0 xy xz yz

Masses

1	12.01078
2	18.998403
3	32.0655
4	15.99943
5	14.00672
6	12.01078
7	1.007947
8	1.007947
9	1.007947
10	1.007947
11	1.007947
12	15.99943


Pair Coeffs

1	0.10884061	3.3795318
2	0.061	3.1181455
3	0.25	3.5635949
4	0.2102061	3.0398122
5	0.16769152	3.206876
6	0.086879315	3.4806469
7	0.015779483	2.6445434
8	0.016409246	2.5832257
9	0.013106998	2.4536265
10	0.0157	1.9599772
11	0.014797445	2.4419228
12	0.16846514	3.0251065

Bond Coeffs

1 harmonic	287.91882093395	1.359315559786
2 harmonic	156.8711507117	1.812798632943
3 harmonic	608.035974961	1.469758533467
4 harmonic	239.8447873633	1.642019753341
5 harmonic	215.30139056395	1.533627603844
6 harmonic	357.8191474159	1.094206460752
7 harmonic	225.97114073395	1.477375101044
8 harmonic	329.26307138675	1.389502949007
9 harmonic	452.0241811971	1.373209032276
10 harmonic	386.4399368291	1.08603610657
11 harmonic	505.163639116	1.309372378949
12 harmonic	227.0371466687	1.436323905911


Angle Coeffs

1 harmonic	119.7125597221	107.2128707706
2 harmonic	66.75631831595	109.9380527584
3 harmonic	124.0884341307	113.2116558678
4 harmonic	94.25109102650001	120.4494266916
5 harmonic	79.47831834420001	121.7705343867
6 harmonic	91.51855890415	108.1730591511
7 harmonic	50.901762366	124.801611398
8 harmonic	36.776637850755	108.3543135269
9 harmonic	119.8958895535	112.8736161145


Dihedral Coeffs

1 fourier 1	-1.572239594429	1	180
2 fourier 1	0.316444679891	2	0
3 fourier 1	0.1426731536269	3	0
4 fourier 1	0.2057583936885	3	0
5 fourier 1	0.3549667638131	3	0
6 fourier 1	0.2399307824079	2	180
7 fourier 1	0.9156101580834	1	180
8 fourier 1	0.0985377828486	3	0
9 fourier 1	0.143904881748	3	0
10 fourier 1	0.3215160932459	2	0
11 fourier 1	0.2510071310501	3	0
12 fourier 1	-0.1108037280545	4	180
13 fourier 1	-0.2219080374426	3	180
14 fourier 1	0.8434650381516	2	0
15 fourier 1	-0.1523281600983	1	0
16 fourier 1	1.469128273675	2	180
17 fourier 1	4.626306460904	2	180
18 fourier 1	1.012490953194	2	180
19 fourier 1	1.409955177277	2	180
20 fourier 1	1.079567853188	2	180
21 fourier 1	1.601769915929	1	0
22 fourier 1	0.2279946533057	3	0
23 fourier 1	0.3102287948961	3	0
24 fourier 1	-0.04857068407726	2	180
25 fourier 1	0.2631113656674667	3	0
26 fourier 1	-0.01533770820035	3	0
27 fourier 1	0.4191503124266	2	0
28 fourier 1	0.1311347012225	3	0
29 fourier 1	0.436546671918	1	0


Improper Coeffs

1 5.335286357863333	-1	2
2 1.743596855104667	-1	2
3 3.374156584723333	-1	2
4 0.4187541668506667	-1	2


Atoms

1	1	1	0.53867169	13.774492	38.648655	1.1291054
2	1	2	-0.26574303	13.438865	38.263597	-0.14364616
3	1	2	-0.26574303	12.608454	38.96662	1.7784917
4	1	2	-0.26574303	14.500241	39.808569	1.0234734
5	1	3	1.5785306	14.762696	37.286377	2.0635797
6	1	4	-0.66341273	15.933084	36.943941	1.2399305
7	1	4	-0.66341273	14.989598	37.777159	3.4357667
8	1	5	-0.98629526	13.866891	35.957999	2.1374382
9	1	3	1.5785306	14.408944	34.971023	3.2763019
10	1	4	-0.66341273	15.876403	34.894977	3.1814775
11	1	4	-0.66341273	13.805422	35.444512	4.5353681
12	1	1	0.53867169	13.728063	33.201277	2.952688
13	1	2	-0.26574309	12.356964	33.169131	2.9509485
14	1	2	-0.26574309	14.151154	32.698722	1.7491642
15	1	2	-0.26574309	14.148152	32.326908	3.9250147
16	2	1	0.53867169	9.5920986	63.678164	53.857398
17	2	2	-0.26574303	8.405844	64.319539	54.077744
18	2	2	-0.26574303	10.541712	64.646745	53.690996
19	2	2	-0.26574303	9.4346559	63.020911	52.669888
20	2	3	1.5785306	9.9817967	62.457137	55.286827
21	2	4	-0.66341273	8.7346804	61.719956	55.544438
22	2	4	-0.66341273	11.189632	61.689363	54.938989
23	2	5	-0.98629526	10.359248	63.27836	56.601787
24	2	3	1.5785306	10.132272	62.386365	57.913079
25	2	4	-0.66341273	8.7334341	62.64883	58.298373
26	2	4	-0.66341273	10.548449	60.997906	57.629514
27	2	1	0.53867169	11.256864	63.040047	59.324341
28	2	2	-0.26574309	12.584782	62.818732	59.058042
29	2	2	-0.26574309	11.081336	64.382486	59.532881
30	2	2	-0.26574309	10.976533	62.402215	60.504508
31	3	1	0.53867169	43.137269	55.973368	12.382591
32	3	2	-0.26574303	43.373704	57.323532	12.419561
33	3	2	-0.26574303	44.326901	55.361729	12.690374
34	3	2	-0.26574303	42.851291	55.640426	11.08481
35	3	3	1.5785306	41.742105	55.430522	13.587475
36	3	4	-0.66341273	40.503612	56.115494	13.182145
37	3	4	-0.66341273	41.780577	53.959627	13.628234
38	3	5	-0.98629526	42.084861	56.005068	15.043175
39	3	3	1.5785306	41.334596	55.142045	16.166835
40	3	4	-0.66341273	39.968581	54.834442	15.702217
41	3	4	-0.66341273	42.280965	54.062753	16.48651
42	3	1	0.53867169	41.14377	56.231174	17.741126
43	3	2	-0.26574309	42.350388	56.682405	18.213816
44	3	2	-0.26574309	40.366673	57.334204	17.492799
45	3	2	-0.26574309	40.534792	55.543694	18.758337
46	4	1	0.53867169	28.850596	56.729627	7.7722549
47	4	2	-0.26574303	27.480567	56.684704	7.7217859
48	4	2	-0.26574303	29.224782	57.797985	8.5495418
49	4	2	-0.26574303	29.282658	57.035847	6.5076566
50	4	3	1.5785306	29.611144	55.038877	8.3590138
51	4	4	-0.66341273	29.732673	54.182019	7.1658617
52	4	4	-0.66341273	30.869479	55.268011	9.0881634
53	4	5	-0.98629526	28.620894	54.160967	9.280507
54	4	3	1.5785306	28.540592	54.766269	10.753173
55	4	4	-0.66341273	29.705799	54.237127	11.476343
56	4	4	-0.66341273	28.35089	56.212997	10.608369
57	4	1	0.53867169	26.959174	54.079251	11.621211
58	4	2	-0.26574309	25.810788	54.364481	10.928171
59	4	2	-0.26574309	26.988184	52.717099	11.790134
60	4	2	-0.26574309	26.792774	54.625001	12.865331
61	5	1	0.53867169	58.650956	66.338019	16.906873
62	5	2	-0.26574303	60.008407	66.226573	16.738634
63	5	2	-0.26574303	58.430734	66.956663	18.11277
64	5	2	-0.26574303	58.143191	65.069551	17.002591
65	5	3	1.5785306	57.846293	67.326498	15.473
66	5	4	-0.66341273	58.187685	66.630726	14.223597
67	5	4	-0.66341273	56.44856	67.57071	15.8707
68	5	5	-0.98629526	58.596621	68.743887	15.379971
69	5	3	1.5785306	57.662835	69.814806	14.619836
70	5	4	-0.66341273	57.032838	69.156919	13.467746
71	5	4	-0.66341273	56.82056	70.377269	15.691253
72	5	1	0.53867169	58.764219	71.241603	13.953619
73	5	2	-0.26574309	59.499221	71.817455	14.959055
74	5	2	-0.26574309	59.652643	70.803413	13.008081
75	5	2	-0.26574309	58.012643	72.235489	13.38316
76	6	1	0.53867169	12.120973	64.178281	15.256294
77	6	2	-0.26574303	13.116376	63.655972	14.472855
78	6	2	-0.26574303	12.703398	64.566407	16.436466
79	6	2	-0.26574303	11.251547	63.160429	15.554191
80	6	3	1.5785306	11.218892	65.643845	14.399215
81	6	4	-0.66341273	10.697445	65.16511	13.10894
82	6	4	-0.66341273	10.264742	66.189728	15.375867
83	6	5	-0.98629526	12.297599	66.771679	14.03344
84	6	3	1.5785306	11.592784	68.208332	13.902528
85	6	4	-0.66341273	10.28217	68.053093	13.243672
86	6	4	-0.66341273	11.647352	68.757882	15.268004
87	6	1	0.53867169	12.678392	69.336543	12.790002
88	6	2	-0.26574309	13.991255	69.330111	13.193858
89	6	2	-0.26574309	12.64958	68.942122	11.48145
90	6	2	-0.26574309	12.242748	70.636158	12.827471
91	7	1	0.53867169	66.158543	20.260866	15.899053
92	7	2	-0.26574303	67.452478	20.693462	16.020583
93	7	2	-0.26574303	65.442667	20.846076	16.911614
94	7	2	-0.26574303	66.150031	18.910449	16.129117
95	7	3	1.5785306	65.418973	20.686343	14.175578
96	7	4	-0.66341273	66.320953	20.133545	13.152586
97	7	4	-0.66341273	64.004059	20.278404	14.191945
98	7	5	-0.98629526	65.481033	22.276385	13.967658
99	7	3	1.5785306	64.465556	22.729836	12.816825
100	7	4	-0.66341273	64.589405	21.804194	11.677612
101	7	4	-0.66341273	63.168616	22.908988	13.488805
102	7	1	0.53867169	65.009775	24.466262	12.183852
103	7	2	-0.26574309	65.101571	25.38511	13.198104
104	7	2	-0.26574309	66.23168	24.425299	11.565876
105	7	2	-0.26574309	64.123054	24.986141	11.273612
106	8	1	0.53867169	34.574041	14.437604	50.650363
107	8	2	-0.26574303	34.580591	14.174889	49.310155
108	8	2	-0.26574303	33.973727	13.377575	51.277304
109	8	2	-0.26574303	33.769002	15.527149	50.841627
110	8	3	1.5785306	36.340604	14.75826	51.322603
111	8	4	-0.66341273	37.08797	13.498448	51.193204
112	8	4	-0.66341273	36.827307	15.985991	50.669088
113	8	5	-0.98629526	36.222963	15.020417	52.902017
114	8	3	1.5785306	37.548749	15.759057	53.433218
115	8	4	-0.66341273	38.724675	15.081304	52.865
116	8	4	-0.66341273	37.348759	17.192341	53.168559
117	8	1	0.53867169	37.651298	15.566944	55.337696
118	8	2	-0.26574309	37.836699	14.264253	55.714874
119	8	2	-0.26574309	38.698115	16.289066	55.853019
120	8	2	-0.26574309	36.509147	16.010091	55.943546
121	9	1	0.53867169	30.99323	42.611494	76.973481
122	9	2	-0.26574303	31.317184	43.918104	77.23886
123	9	2	-0.26574303	31.29297	41.883006	78.09617
124	9	2	-0.26574303	31.834221	42.180758	75.97733
125	9	3	1.5785306	29.15051	42.41446	76.457524
126	9	4	-0.66341273	28.924801	43.319254	75.316024
127	9	4	-0.66341273	28.908057	40.973234	76.277971
128	9	5	-0.98629526	28.225117	42.960505	77.646627
129	9	3	1.5785306	26.733267	42.391529	77.505322
130	9	4	-0.66341273	26.298268	42.558017	76.10764
131	9	4	-0.66341273	26.751747	41.046643	78.103442
132	9	1	0.53867169	25.566497	43.473911	78.590617
133	9	2	-0.26574309	25.935736	43.467908	79.912639
134	9	2	-0.26574309	25.555747	44.784145	78.183565
135	9	2	-0.26574309	24.269586	43.027687	78.535447
136	10	1	0.53867169	65.029168	11.680797	15.374608
137	10	2	-0.26574303	66.26967	11.69964	14.790918
138	10	2	-0.26574303	65.116353	12.376105	16.552376
139	10	2	-0.26574303	64.778585	10.372635	15.697964
140	10	3	1.5785306	63.665018	12.383349	14.21883
141	10	4	-0.66341273	63.616371	11.516982	13.028572
142	10	4	-0.66341273	62.446971	12.568425	15.024233
143	10	5	-0.98629526	64.115009	13.815485	13.678451
144	10	3	1.5785306	62.852635	14.6231	13.111997
145	10	4	-0.66341273	61.946139	13.695278	12.409214
146	10	4	-0.66341273	62.337646	15.383072	14.265286
147	10	1	0.53867169	63.484793	15.894312	11.814255
148	10	2	-0.26574309	64.387026	16.774563	12.351305
149	10	2	-0.26574309	64.104319	15.285408	10.750175
150	10	2	-0.26574309	62.462153	16.642773	11.291009
151	11	1	0.53867169	65.599837	67.565694	11.197563
152	11	2	-0.26574303	64.775777	66.701231	10.523597
153	11	2	-0.26574303	65.444703	67.283258	12.532955
154	11	2	-0.26574303	65.099096	68.822799	10.987693
155	11	3	1.5785306	67.42806	67.430964	10.62418
156	11	4	-0.66341273	67.411714	67.576847	9.1616476
157	11	4	-0.66341273	68.203745	68.352604	11.471936
158	11	5	-0.98629526	67.922907	65.938869	10.924566
159	11	3	1.5785306	69.529643	65.874314	10.856619
160	11	4	-0.66341273	70.018201	66.713347	9.7532988
161	11	4	-0.66341273	69.974213	66.155453	12.231379
162	11	1	0.53867169	70.037494	64.062972	10.470581
163	11	2	-0.26574309	69.573269	63.197689	11.429927
164	11	2	-0.26574309	69.546261	63.628759	9.2680061
165	11	2	-0.26574309	71.399417	63.916512	10.436808
166	12	1	0.53867169	12.673528	54.890223	32.817392
167	12	2	-0.26574303	11.766684	55.78918	33.317468
168	12	2	-0.26574303	12.480153	53.703833	33.475978
169	12	2	-0.26574303	13.919151	55.349836	33.162422
170	12	3	1.5785306	12.505293	54.689388	30.91265
171	12	4	-0.66341273	12.761316	56.010189	30.314646
172	12	4	-0.66341273	13.326472	53.531027	30.516672
173	12	5	-0.98629526	10.972375	54.388938	30.557969
174	12	3	1.5785306	10.845156	53.666782	29.132583
175	12	4	-0.66341273	11.810356	54.272089	28.19875
176	12	4	-0.66341273	10.949931	52.225275	29.416368
177	12	1	0.53867169	9.0837258	53.997869	28.428991
178	12	2	-0.26574309	8.1010389	53.560905	29.278295
179	12	2	-0.26574309	8.8634175	55.335641	28.212543
180	12	2	-0.26574309	8.8982654	53.355103	27.232924
181	13	1	0.53867169	58.860517	39.34833	63.527012
182	13	2	-0.26574303	59.927993	40.000715	62.968903
183	13	2	-0.26574303	58.77039	39.755998	64.834685
184	13	2	-0.26574303	59.162574	38.011289	63.545384
185	13	3	1.5785306	57.222481	39.68179	62.578216
186	13	4	-0.66341273	57.432218	39.293246	61.172929
187	13	4	-0.66341273	56.146564	39.038029	63.348508
188	13	5	-0.98629526	56.940269	41.262488	62.557034
189	13	3	1.5785306	55.401616	41.540689	62.194843
190	13	4	-0.66341273	54.989424	40.633826	61.110592
191	13	4	-0.66341273	54.692216	41.521177	63.486147
192	13	1	0.53867169	55.263014	43.330979	61.501188
193	13	2	-0.26574309	55.58959	44.2805	62.43546
194	13	2	-0.26574309	56.088266	43.53611	60.424614
195	13	2	-0.26574309	53.993039	43.629675	61.079645
196	14	1	0.53867169	44.735017	15.374119	12.263561
197	14	2	-0.26574303	45.16377	16.669254	12.41468
198	14	2	-0.26574303	45.831079	14.59684	11.983103
199	14	2	-0.26574303	43.973923	15.342897	11.123308
200	14	3	1.5785306	43.704081	14.761415	13.798537
201	14	4	-0.66341273	42.314858	15.207098	13.599561
202	14	4	-0.66341273	43.882108	13.313481	13.993753
203	14	5	-0.98629526	44.087081	15.520275	15.16964
204	14	3	1.5785306	45.438066	14.933748	15.781413
205	14	4	-0.66341273	45.041904	13.748823	16.565108
206	14	4	-0.66341273	46.378713	14.807303	14.662908
207	14	1	0.53867169	46.153684	16.224222	17.022734
208	14	2	-0.26574309	46.598077	17.358183	16.392103
209	14	2	-0.26574309	45.212626	16.620395	17.939264
210	14	2	-0.26574309	47.201662	15.719442	17.748358
211	15	1	0.53867169	40.586786	29.08747	31.889625
212	15	2	-0.26574303	39.518142	28.464184	32.481976
213	15	2	-0.26574303	41.038356	28.263021	30.891464
214	15	2	-0.26574303	41.584764	29.165571	32.828593
215	15	3	1.5785306	40.114551	30.827131	31.218107
216	15	4	-0.66341273	39.505854	31.57727	32.326143
217	15	4	-0.66341273	41.302433	31.389654	30.552719
218	15	5	-0.98629526	38.927214	30.674489	30.145893
219	15	3	1.5785306	38.865862	31.961877	29.196718
220	15	4	-0.66341273	38.920362	33.163254	30.049045
221	15	4	-0.66341273	39.886866	31.760104	28.160686
222	15	1	0.53867169	37.154491	31.99584	28.317375
223	15	2	-0.26574309	36.941144	30.901868	27.518682
224	15	2	-0.26574309	36.119967	32.049241	29.217093
225	15	2	-0.26574309	37.02513	33.096244	27.512314
226	16	1	0.53867169	61.931362	33.67475	54.528785
227	16	2	-0.26574303	60.928097	32.747443	54.406023
228	16	2	-0.26574303	62.320619	34.052224	53.271227
229	16	2	-0.26574303	63.006701	33.00941	55.060792
230	16	3	1.5785306	61.411638	35.175283	55.650191
231	16	4	-0.66341273	61.761651	34.820435	57.034492
232	16	4	-0.66341273	61.992679	36.429541	55.14297
233	16	5	-0.98629526	59.816976	35.362086	55.774055
234	16	3	1.5785306	59.216824	36.005664	54.443798
235	16	4	-0.66341273	59.447913	37.455823	54.524031
236	16	4	-0.66341273	59.768629	35.241885	53.319387
237	16	1	0.53867169	57.322888	35.717974	54.4416
238	16	2	-0.26574309	57.017159	34.380617	54.5085
239	16	2	-0.26574309	56.714444	36.33121	55.502615
240	16	2	-0.26574309	56.749368	36.194036	53.291793
241	17	1	0.53867169	62.828603	48.456678	28.730342
242	17	2	-0.26574303	61.82189	47.947326	29.508896
243	17	2	-0.26574303	62.572808	49.786143	28.535383
244	17	2	-0.26574303	62.691383	47.884903	27.49109
245	17	3	1.5785306	64.585247	48.091826	29.468203
246	17	4	-0.66341273	64.934425	46.725235	29.03621
247	17	4	-0.66341273	65.520077	49.16049	29.083469
248	17	5	-0.98629526	64.567633	47.934599	31.073766
249	17	3	1.5785306	64.547172	49.365172	31.783562
250	17	4	-0.66341273	65.930729	49.865913	31.79826
251	17	4	-0.66341273	63.487797	50.138006	31.122856
252	17	1	0.53867169	64.026966	49.12919	33.620648
253	17	2	-0.26574309	62.787752	48.559299	33.749654
254	17	2	-0.26574309	64.909773	48.339467	34.311893
255	17	2	-0.26574309	63.972521	50.320764	34.279068
256	18	1	0.53867169	53.332105	7.9416996	27.822978
257	18	2	-0.26574303	53.816366	6.7398775	27.378461
258	18	2	-0.26574303	52.878041	8.6264181	26.724167
259	18	2	-0.26574303	54.39712	8.6443275	28.329268
260	18	3	1.5785306	51.953878	7.7241069	29.143486
261	18	4	-0.66341273	52.490392	6.85242	30.20066
262	18	4	-0.66341273	51.493635	9.0743703	29.513402
263	18	5	-0.98629526	50.735598	6.920231	28.48346
264	18	3	1.5785306	49.399533	7.1407765	29.331286
265	18	4	-0.66341273	49.713836	7.0447093	30.767639
266	18	4	-0.66341273	48.813739	8.3878624	28.809328
267	18	1	0.53867169	48.156648	5.7282227	28.940339
268	18	2	-0.26574309	47.865701	5.6503171	27.604311
269	18	2	-0.26574309	48.63214	4.5038635	29.330287
270	18	2	-0.26574309	46.969023	5.9302175	29.600487
271	19	1	0.53867169	16.044286	56.908278	28.819563
272	19	2	-0.26574303	15.494603	57.383308	29.97952
273	19	2	-0.26574303	15.274581	55.871696	28.364351
274	19	2	-0.26574303	17.274115	56.394157	29.1484
275	19	3	1.5785306	16.220725	58.294516	27.508223
276	19	4	-0.66341273	16.980785	59.384522	28.146489
277	19	4	-0.66341273	16.774609	57.665782	26.29503
278	19	5	-0.98629526	14.773132	58.923268	27.209783
279	19	3	1.5785306	14.698299	59.478769	25.710146
280	19	4	-0.66341273	15.93256	60.239935	25.460336
281	19	4	-0.66341273	14.389172	58.287482	24.902797
282	19	1	0.53867169	13.213476	60.694442	25.550985
283	19	2	-0.26574309	12.081822	60.20793	26.140442
284	19	2	-0.26574309	13.47223	61.894588	26.153121
285	19	2	-0.26574309	12.894806	60.934968	24.243109
286	20	1	0.53867169	68.463416	59.939656	24.18061
287	20	2	-0.26574303	69.604836	59.399157	24.71216
288	20	2	-0.26574303	67.763844	58.903446	23.610926
289	20	2	-0.26574303	68.830967	60.78136	23.163922
290	20	3	1.5785306	67.402544	60.842943	25.503294
291	20	4	-0.66341273	68.23452	61.916814	26.064796
292	20	4	-0.66341273	66.112409	61.143961	24.861279
293	20	5	-0.98629526	67.101994	59.81113	26.697268
294	20	3	1.5785306	65.931759	60.390124	27.651031
295	20	4	-0.66341273	66.096911	61.839471	27.829063
296	20	4	-0.66341273	64.684405	59.887652	27.051558
297	20	1	0.53867169	66.104045	59.570513	29.384394
298	20	2	-0.26574309	66.025596	58.20118	29.310279
299	20	2	-0.26574309	67.305841	59.864454	29.972408
300	20	2	-0.26574309	65.115499	59.980469	30.240541
301	21	1	0.53867169	33.43883	37.031696	26.063945
302	21	2	-0.26574303	33.680089	37.265627	24.733329
303	21	2	-0.26574303	34.595339	36.512663	26.585345
304	21	2	-0.26574303	32.512674	36.01764	26.112978
305	21	3	1.5785306	32.832794	38.607342	26.993785
306	21	4	-0.66341273	31.716938	39.146323	26.201577
307	21	4	-0.66341273	32.638748	38.212793	28.397777
308	21	5	-0.98629526	33.995223	39.705842	26.930521
309	21	3	1.5785306	33.74258	40.83045	28.0494
310	21	4	-0.66341273	32.30829	41.145158	28.12279
311	21	4	-0.66341273	34.445086	40.332651	29.245543
312	21	1	0.53867169	34.647284	42.440648	27.507064
313	21	2	-0.26574309	36.008453	42.262406	27.447751
314	21	2	-0.26574309	34.241898	42.87159	26.271007
315	21	2	-0.26574309	34.420788	43.465075	28.391674
316	22	1	0.53867169	10.136232	66.186242	2.378872
317	22	2	-0.26574303	9.6787286	65.472336	3.4554413
318	22	2	-0.26574303	10.738698	65.280275	1.5419786
319	22	2	-0.26574303	11.12097	67.018843	2.8422123
320	22	3	1.5785306	8.7182057	67.155132	1.5064399
321	22	4	-0.66341273	8.0549783	67.97852	2.5293624
322	22	4	-0.66341273	9.2920417	67.811027	0.31738166
323	22	5	-0.98629526	7.6108032	66.09942	1.0287407
324	22	3	1.5785306	6.6996205	66.724997	-0.13473767
325	22	4	-0.66341273	6.3771087	68.118057	0.21546524
326	22	4	-0.66341273	7.4389374	66.470284	-1.3830161
327	22	1	0.53867169	5.0491035	65.735726	-0.21076748
328	22	2	-0.26574309	5.2680939	64.386849	-0.33927113
329	22	2	-0.26574309	4.3003401	65.899959	0.9268821
330	22	2	-0.26574309	4.2699155	66.127234	-1.2673153
331	23	1	0.53867169	22.855406	54.701824	53.869953
332	23	2	-0.26574303	24.089987	55.280719	54.023652
333	23	2	-0.26574303	22.31642	54.561019	55.123034
334	23	2	-0.26574303	23.063855	53.437109	53.378196
335	23	3	1.5785306	21.713712	55.722632	52.702079
336	23	4	-0.66341273	22.463202	55.945735	51.455178
337	23	4	-0.66341273	20.412595	55.029497	52.652159
338	23	5	-0.98629526	21.496587	57.180967	53.330164
339	23	3	1.5785306	20.188718	57.867336	52.706304
340	23	4	-0.66341273	20.130556	57.596498	51.259351
341	23	4	-0.66341273	19.065289	57.427826	53.552341
342	23	1	0.53867169	20.331016	59.771767	52.90607
343	23	2	-0.26574309	20.506117	60.138478	54.213734
344	23	2	-0.26574309	21.378713	60.289617	52.189856
345	23	2	-0.26574309	19.195368	60.397363	52.461281
346	24	1	0.53867169	21.113477	74.770713	56.555929
347	24	2	-0.26574303	21.680179	75.880103	55.979114
348	24	2	-0.26574303	19.92486	74.555025	55.90662
349	24	2	-0.26574303	20.81238	75.112147	57.849798
350	24	3	1.5785306	22.27591	73.248115	56.431146
351	24	4	-0.66341273	23.529437	73.610883	57.109942
352	24	4	-0.66341273	21.500211	72.065554	56.835628
353	24	5	-0.98629526	22.693152	73.085394	54.890661
354	24	3	1.5785306	23.21456	71.589146	54.614711
355	24	4	-0.66341273	24.070883	71.167107	55.732985
356	24	4	-0.66341273	22.013414	70.807896	54.279685
357	24	1	0.53867169	24.318688	71.661172	53.044357
358	24	2	-0.26574309	23.628047	72.14931	51.963348
359	24	2	-0.26574309	25.386882	72.505627	53.227034
360	24	2	-0.26574309	24.809353	70.429726	52.700334
361	25	1	0.53867169	51.18722	33.877423	40.74275
362	25	2	-0.26574303	51.800609	35.061247	41.059203
363	25	2	-0.26574303	51.742144	33.433955	39.57206
364	25	2	-0.26574303	49.866424	34.1468	40.493212
365	25	3	1.5785306	51.37814	32.587912	42.153897
366	25	4	-0.66341273	50.817795	33.176789	43.373518
367	25	4	-0.66341273	50.850682	31.305976	41.663966
368	25	5	-0.98629526	52.932148	32.346091	42.432065
369	25	3	1.5785306	53.160591	31.664915	43.874731
370	25	4	-0.66341273	52.217226	30.546858	44.035087
371	25	4	-0.66341273	54.581604	31.283374	43.782201
372	25	1	0.53867169	53.011961	32.912335	45.361376
373	25	2	-0.26574309	53.361144	34.184234	44.990296
374	25	2	-0.26574309	51.769013	32.949629	45.931144
375	25	2	-0.26574309	53.863149	32.562377	46.38104
376	26	1	0.53867169	36.472669	38.774245	37.82671
377	26	2	-0.26574303	36.215076	40.038562	38.29226
378	26	2	-0.26574303	35.710893	37.914262	38.567665
379	26	2	-0.26574303	37.783494	38.496137	38.11142
380	26	3	1.5785306	36.120842	38.626857	35.943155
381	26	4	-0.66341273	36.964226	39.623961	35.263462
382	26	4	-0.66341273	36.227543	37.203612	35.583348
383	26	5	-0.98629526	34.617889	39.107566	35.656822
384	26	3	1.5785306	34.097915	38.529623	34.254107
385	26	4	-0.66341273	35.167887	38.68964	33.254938
386	26	4	-0.66341273	33.583217	37.180459	34.545071
387	26	1	0.53867169	32.612083	39.603574	33.681982
388	26	2	-0.26574309	31.598797	39.603295	34.606671
389	26	2	-0.26574309	32.984669	40.91207	33.487017
390	26	2	-0.26574309	32.082996	39.142165	32.507157
391	27	1	0.53867169	31.290288	60.956573	28.647785
392	27	2	-0.26574303	31.044171	62.077751	29.394853
393	27	2	-0.26574303	30.557952	61.042991	27.493465
394	27	2	-0.26574303	30.7389	59.901061	29.325626
395	27	3	1.5785306	33.191583	60.682502	28.340306
396	27	4	-0.66341273	33.706577	59.910374	29.481547
397	27	4	-0.66341273	33.402009	60.079417	27.013478
398	27	5	-0.98629526	34.045963	62.041364	28.454909
399	27	3	1.5785306	33.892562	62.91575	27.134414
400	27	4	-0.66341273	34.864533	62.398753	26.160023
401	27	4	-0.66341273	32.463713	62.95105	26.801732
402	27	1	0.53867169	34.411397	64.715486	27.550921
403	27	2	-0.26574309	33.602076	65.267372	28.510747
404	27	2	-0.26574309	35.701556	64.791765	28.009675
405	27	2	-0.26574309	34.330673	65.53164	26.455388
406	28	1	0.53867169	46.11867	56.150689	70.444689
407	28	2	-0.26574303	44.964585	56.879029	70.586128
408	28	2	-0.26574303	45.775981	55.002642	69.779334
409	28	2	-0.26574303	46.540318	55.790262	71.698246
410	28	3	1.5785306	47.463818	57.137918	69.494123
411	28	4	-0.66341273	47.692657	58.395658	70.22387
412	28	4	-0.66341273	48.59374	56.227427	69.253368
413	28	5	-0.98629526	46.847887	57.571483	68.0759
414	28	3	1.5785306	48.027086	57.925081	67.040248
415	28	4	-0.66341273	49.06857	58.687239	67.745953
416	28	4	-0.66341273	48.365154	56.639996	66.403775
417	28	1	0.53867169	47.29651	59.064126	65.681868
418	28	2	-0.26574309	46.215534	58.483028	65.079217
419	28	2	-0.26574309	46.867547	60.256548	66.199384
420	28	2	-0.26574309	48.198299	59.344149	64.692273
421	29	1	0.53867169	24.397161	13.097773	22.79398
422	29	2	-0.26574303	24.944475	12.005548	22.173452
423	29	2	-0.26574303	23.490202	13.654933	21.929169
424	29	2	-0.26574303	25.403852	14.015051	22.961407
425	29	3	1.5785306	23.583596	12.64379	24.474707
426	29	4	-0.66341273	24.593279	11.935846	25.27432
427	29	4	-0.66341273	22.982655	13.880471	25.004594
428	29	5	-0.98629526	22.419319	11.571761	24.213459
429	29	3	1.5785306	21.343362	11.603144	25.395482
430	29	4	-0.66341273	22.061639	11.603081	26.681881
431	29	4	-0.66341273	20.430377	12.713298	25.069313
432	29	1	0.53867169	20.312958	9.9819887	25.343318
433	29	2	-0.26574309	19.665418	9.8111492	24.148614
434	29	2	-0.26574309	21.095967	8.8755101	25.551059
435	29	2	-0.26574309	19.359145	9.9705023	26.329596
436	30	1	0.53867169	47.803912	48.29567	37.238171
437	30	2	-0.26574303	49.077702	48.786793	37.111182
438	30	2	-0.26574303	47.37885	48.630767	38.497603
439	30	2	-0.26574303	47.901258	46.929927	37.192526
440	30	3	1.5785306	46.639085	48.985777	35.87297
441	30	4	-0.66341273	47.289767	48.727503	34.58009
442	30	4	-0.66341273	45.287056	48.467402	36.143377
443	30	5	-0.98629526	46.605697	50.580378	36.006453
444	30	3	1.5785306	45.313201	51.178865	35.265069
445	30	4	-0.66341273	45.12681	50.479522	33.982334
446	30	4	-0.66341273	44.231958	51.116109	36.261981
447	30	1	0.53867169	45.654478	53.034773	34.87447
448	30	2	-0.26574309	45.930314	53.757558	36.007946
449	30	2	-0.26574309	46.739168	53.188248	34.046421
450	30	2	-0.26574309	44.58621	53.629441	34.254794
451	31	1	0.53867169	73.385577	39.129417	68.877168
452	31	2	-0.26574303	73.983836	39.861643	67.883401
453	31	2	-0.26574303	73.511963	39.84489	70.04034
454	31	2	-0.26574303	74.118462	37.979486	69.030924
455	31	3	1.5785306	71.544151	38.738575	68.477516
456	31	4	-0.66341273	71.508083	38.073571	67.16485
457	31	4	-0.66341273	70.979977	38.036342	69.64654
458	31	5	-0.98629526	70.755925	40.119095	68.280468
459	31	3	1.5785306	69.181113	39.900918	68.461447
460	31	4	-0.66341273	68.785167	38.654649	67.785115
461	31	4	-0.66341273	68.926668	40.037885	69.905324
462	31	1	0.53867169	68.260717	41.341372	67.576313
463	31	2	-0.26574309	68.61093	42.570848	68.071437
464	31	2	-0.26574309	68.521686	41.36394	66.229844
465	31	2	-0.26574309	66.898198	41.235104	67.711325
466	32	1	0.53867169	62.884068	70.858927	62.840815
467	32	2	-0.26574303	63.016686	72.220769	62.930841
468	32	2	-0.26574303	63.595419	70.452509	61.740456
469	32	2	-0.26574303	61.561413	70.598502	62.583203
470	32	3	1.5785306	63.479691	69.966869	64.438181
471	32	4	-0.66341273	62.740154	70.546875	65.570154
472	32	4	-0.66341273	63.385301	68.516603	64.187241
473	32	5	-0.98629526	65.020461	70.337396	64.690423
474	32	3	1.5785306	65.710855	69.253182	65.643783
475	32	4	-0.66341273	64.795451	68.953652	66.756053
476	32	4	-0.66341273	66.123214	68.152924	64.752693
477	32	1	0.53867169	67.305965	70.00669	66.409535
478	32	2	-0.26574309	68.205042	70.39474	65.449791
479	32	2	-0.26574309	67.031641	71.105237	67.182698
480	32	2	-0.26574309	67.942805	69.098172	67.217822
481	33	1	0.53867169	4.6328011	57.599945	52.078137
482	33	2	-0.26574303	3.8363391	58.657446	51.715426
483	33	2	-0.26574303	4.7797856	56.810217	50.975451
484	33	2	-0.26574303	3.9164564	56.863785	52.9848
485	33	3	1.5785306	6.2875062	58.223071	52.873139
486	33	4	-0.66341273	5.9280193	58.87958	54.143753
487	33	4	-0.66341273	7.2814459	57.142448	52.991042
488	33	5	-0.98629526	6.9346076	59.471555	52.082195
489	33	3	1.5785306	7.8847814	58.962688	50.897117
490	33	4	-0.66341273	9.1921759	58.710403	51.532545
491	33	4	-0.66341273	7.1660161	57.888622	50.20586
492	33	1	0.53867169	8.1215203	60.394816	49.6415
493	33	2	-0.26574309	6.9324213	60.772572	49.072008
494	33	2	-0.26574309	8.6464149	61.504383	50.245237
495	33	2	-0.26574309	8.9761144	60.039091	48.630166
496	34	1	0.53867169	65.8394	62.640328	46.705561
497	34	2	-0.26574303	66.318178	63.362575	47.770224
498	34	2	-0.26574303	65.397477	63.542943	45.772877
499	34	2	-0.26574303	64.750724	61.946011	47.159419
500	34	3	1.5785306	67.188158	61.466932	45.991406
501	34	4	-0.66341273	67.679896	60.639777	47.103615
502	34	4	-0.66341273	66.644187	60.802655	44.790497
503	34	5	-0.98629526	68.447294	62.354898	45.551429
504	34	3	1.5785306	69.3678	61.555228	44.518237
505	34	4	-0.66341273	69.470787	60.152221	44.95667
506	34	4	-0.66341273	68.791962	61.835656	43.191404
507	34	1	0.53867169	71.139665	62.298231	44.545007
508	34	2	-0.26574309	71.721435	62.182245	45.781808
509	34	2	-0.26574309	71.955643	61.656861	43.647146
510	34	2	-0.26574309	71.143508	63.627458	44.209614
511	35	1	0.53867169	62.688036	30.480235	42.295089
512	35	2	-0.26574303	61.461148	31.057839	42.114244
513	35	2	-0.26574303	63.487077	31.427605	42.878494
514	35	2	-0.26574303	63.191381	30.231225	41.043768
515	35	3	1.5785306	62.594638	28.872035	43.349566
516	35	4	-0.66341273	61.71268	27.924726	42.646604
517	35	4	-0.66341273	63.981514	28.463714	43.624425
518	35	5	-0.98629526	61.825323	29.190056	44.728403
519	35	3	1.5785306	62.364511	28.227513	45.886822
520	35	4	-0.66341273	62.37711	26.85128	45.356369
521	35	4	-0.66341273	63.600917	28.849607	46.383538
522	35	1	0.53867169	61.105037	28.242612	47.341666
523	35	2	-0.26574309	60.714889	29.510069	47.692604
524	35	2	-0.26574309	59.965768	27.54498	47.033472
525	35	2	-0.26574309	61.630549	27.654529	48.459196
526	36	1	0.53867169	46.47459	17.474149	26.713791
527	36	2	-0.26574303	46.307325	16.436979	27.591989
528	36	2	-0.26574303	45.779719	17.184905	25.565505
529	36	2	-0.26574303	47.79201	17.474259	26.334667
530	36	3	1.5785306	45.977421	19.176843	27.49877
531	36	4	-0.66341273	47.139649	19.656256	28.265321
532	36	4	-0.66341273	45.476909	20.076582	26.442938
533	36	5	-0.98629526	44.853721	19.045794	28.649466
534	36	3	1.5785306	43.396859	18.863331	28.022754
535	36	4	-0.66341273	42.925887	20.210562	27.65811
536	36	4	-0.66341273	43.517308	17.832931	26.983607
537	36	1	0.53867169	42.220802	18.191218	29.388928
538	36	2	-0.26574309	42.688236	17.019528	29.920127
539	36	2	-0.26574309	42.079806	19.069731	30.432429
540	36	2	-0.26574309	40.960822	17.94312	28.907831
541	37	1	0.53867169	17.85355	70.188599	74.532638
542	37	2	-0.26574303	18.499458	69.614038	75.599909
543	37	2	-0.26574303	18.705937	71.12915	74.012637
544	37	2	-0.26574303	16.763587	70.856667	75.030227
545	37	3	1.5785306	17.349757	68.875346	73.219385
546	37	4	-0.66341273	16.567189	67.840109	73.914804
547	37	4	-0.66341273	16.772316	69.600692	72.076035