Title

13260 atoms
12960 bonds
23580 angles
36840 dihedrals
3600 impropers

12 atom types
12 bond types
9 angle types
29 dihedral types
4 improper types
-3.752262592 76.24773741 xlo xhi
-8.238081932 71.76191807 ylo yhi
-7.252432108 72.74756789 zlo zhi
0.0 0.0 0.0 xy xz yz

Masses

1	12.01078
2	18.998403
3	32.0655
4	15.99943
5	14.00672
6	12.01078
7	1.007947
8	1.007947
9	1.007947
10	1.007947
11	1.007947
12	15.99943


Pair Coeffs

1	0.10884061	3.3795318
2	0.061	3.1181455
3	0.25	3.5635949
4	0.2102061	3.0398122
5	0.16769152	3.206876
6	0.086879315	3.4806469
7	0.015779483	2.6445434
8	0.016409246	2.5832257
9	0.013106998	2.4536265
10	0.0157	1.9599772
11	0.014797445	2.4419228
12	0.16846514	3.0251065

Bond Coeffs

1 harmonic	287.91882093395	1.359315559786
2 harmonic	156.8711507117	1.812798632943
3 harmonic	608.035974961	1.469758533467
4 harmonic	239.8447873633	1.642019753341
5 harmonic	215.30139056395	1.533627603844
6 harmonic	357.8191474159	1.094206460752
7 harmonic	225.97114073395	1.477375101044
8 harmonic	329.26307138675	1.389502949007
9 harmonic	452.0241811971	1.373209032276
10 harmonic	386.4399368291	1.08603610657
11 harmonic	505.163639116	1.309372378949
12 harmonic	227.0371466687	1.436323905911


Angle Coeffs

1 harmonic	119.7125597221	107.2128707706
2 harmonic	66.75631831595	109.9380527584
3 harmonic	124.0884341307	113.2116558678
4 harmonic	94.25109102650001	120.4494266916
5 harmonic	79.47831834420001	121.7705343867
6 harmonic	91.51855890415	108.1730591511
7 harmonic	50.901762366	124.801611398
8 harmonic	36.776637850755	108.3543135269
9 harmonic	119.8958895535	112.8736161145


Dihedral Coeffs

1 fourier 1	-1.572239594429	1	180
2 fourier 1	0.316444679891	2	0
3 fourier 1	0.1426731536269	3	0
4 fourier 1	0.2057583936885	3	0
5 fourier 1	0.3549667638131	3	0
6 fourier 1	0.2399307824079	2	180
7 fourier 1	0.9156101580834	1	180
8 fourier 1	0.0985377828486	3	0
9 fourier 1	0.143904881748	3	0
10 fourier 1	0.3215160932459	2	0
11 fourier 1	0.2510071310501	3	0
12 fourier 1	-0.1108037280545	4	180
13 fourier 1	-0.2219080374426	3	180
14 fourier 1	0.8434650381516	2	0
15 fourier 1	-0.1523281600983	1	0
16 fourier 1	1.469128273675	2	180
17 fourier 1	4.626306460904	2	180
18 fourier 1	1.012490953194	2	180
19 fourier 1	1.409955177277	2	180
20 fourier 1	1.079567853188	2	180
21 fourier 1	1.601769915929	1	0
22 fourier 1	0.2279946533057	3	0
23 fourier 1	0.3102287948961	3	0
24 fourier 1	-0.04857068407726	2	180
25 fourier 1	0.2631113656674667	3	0
26 fourier 1	-0.01533770820035	3	0
27 fourier 1	0.4191503124266	2	0
28 fourier 1	0.1311347012225	3	0
29 fourier 1	0.436546671918	1	0


Improper Coeffs

1 5.335286357863333	-1	2
2 1.743596855104667	-1	2
3 3.374156584723333	-1	2
4 0.4187541668506667	-1	2


Atoms

1	1	1	0.53867169	16.963873	70.121684	50.344677
2	1	2	-0.26574303	18.299767	70.43222	50.379043
3	1	2	-0.26574303	16.478068	70.557876	49.138432
4	1	2	-0.26574303	16.347475	70.865712	51.317873
5	1	3	1.5785306	16.654531	68.239818	50.598941
6	1	4	-0.66341273	17.280741	67.853909	51.87551
7	1	4	-0.66341273	15.212559	68.001385	50.403266
8	1	5	-0.98629526	17.470934	67.433863	49.48185
9	1	3	1.5785306	16.860998	65.967584	49.276309
10	1	4	-0.66341273	16.555959	65.407691	50.604711
11	1	4	-0.66341273	15.787535	66.135507	48.280377
12	1	1	0.53867169	18.217524	64.858685	48.485098
13	1	2	-0.26574309	18.662387	65.368915	47.291522
14	1	2	-0.26574309	19.309937	64.738693	49.307928
15	1	2	-0.26574309	17.752527	63.593926	48.235407
16	2	1	0.53867169	22.70983	44.284053	32.068064
17	2	2	-0.26574303	23.624854	44.177089	33.085372
18	2	2	-0.26574303	22.887008	43.198981	31.252229
19	2	2	-0.26574303	23.051345	45.397458	31.342633
20	2	3	1.5785306	20.911541	44.403453	32.738392
21	2	4	-0.66341273	20.885901	45.530658	33.685162
22	2	4	-0.66341273	20.005558	44.400854	31.577339
23	2	5	-0.98629526	20.613263	43.106179	33.634927
24	2	3	1.5785306	19.030261	42.890768	33.79777
25	2	4	-0.66341273	18.421893	44.192863	34.116256
26	2	4	-0.66341273	18.598969	42.164798	32.594883
27	2	1	0.53867169	18.730636	41.741877	35.304599
28	2	2	-0.26574309	19.266677	40.498123	35.104871
29	2	2	-0.26574309	19.31048	42.248011	36.442285
30	2	2	-0.26574309	17.394248	41.583033	35.55963
31	3	1	0.53867169	47.727709	25.937638	37.021606
32	3	2	-0.26574303	48.983121	25.386801	37.093408
33	3	2	-0.26574303	47.778149	26.978383	36.130717
34	3	2	-0.26574303	47.452478	26.461928	38.258853
35	3	3	1.5785306	46.418014	24.625127	36.523364
36	3	4	-0.66341273	46.554117	23.511965	37.476561
37	3	4	-0.66341273	45.118322	25.310385	36.406758
38	3	5	-0.98629526	46.822615	24.006314	35.100384
39	3	3	1.5785306	45.539627	23.381245	34.379613
40	3	4	-0.66341273	44.773636	22.603352	35.366595
41	3	4	-0.66341273	44.883375	24.511352	33.699858
42	3	1	0.53867169	46.106839	22.165387	33.002546
43	3	2	-0.26574309	46.895046	22.785904	32.067375
44	3	2	-0.26574309	46.81426	21.10491	33.502688
45	3	2	-0.26574309	45.024509	21.653039	32.330978
46	4	1	0.53867169	39.887791	75.257082	73.123531
47	4	2	-0.26574303	38.596346	75.052485	72.714233
48	4	2	-0.26574303	39.856348	75.462165	74.477763
49	4	2	-0.26574303	40.331154	76.416512	72.541647
50	4	3	1.5785306	41.007662	73.7672	72.665029
51	4	4	-0.66341273	40.838056	73.503532	71.227541
52	4	4	-0.66341273	42.360234	74.050198	73.178315
53	4	5	-0.98629526	40.408788	72.442598	73.35815
54	4	3	1.5785306	41.580758	71.387901	73.65087
55	4	4	-0.66341273	42.385864	71.26688	72.423291
56	4	4	-0.66341273	42.200918	71.820359	74.911418
57	4	1	0.53867169	40.762143	69.680872	73.968663
58	4	2	-0.26574309	39.96134	69.697866	75.082779
59	4	2	-0.26574309	39.964294	69.318233	72.91491
60	4	2	-0.26574309	41.690655	68.692522	74.154205
61	5	1	0.53867169	66.019411	31.250157	32.846375
62	5	2	-0.26574303	65.181437	31.846018	31.937351
63	5	2	-0.26574303	65.258331	30.495608	33.696976
64	5	2	-0.26574303	66.572561	32.267058	33.584111
65	5	3	1.5785306	67.378478	30.212929	31.968596
66	5	4	-0.66341273	67.990255	31.091025	30.955725
67	5	4	-0.66341273	68.244977	29.626381	33.006756
68	5	5	-0.98629526	66.685448	29.046974	31.115496
69	5	3	1.5785306	67.705526	27.844269	30.850158
70	5	4	-0.66341273	68.961544	28.433888	30.347826
71	5	4	-0.66341273	67.76134	27.050319	32.088542
72	5	1	0.53867169	67.014432	26.700881	29.462411
73	5	2	-0.26574309	65.839038	26.091745	29.813209
74	5	2	-0.26574309	66.789527	27.386091	28.298151
75	5	2	-0.26574309	67.906885	25.703282	29.163475
76	6	1	0.53867169	63.203859	12.452335	15.51826
77	6	2	-0.26574303	62.475514	11.523695	16.218818
78	6	2	-0.26574303	62.389827	13.545251	15.345453
79	6	2	-0.26574303	63.422213	11.928443	14.268878
80	6	3	1.5785306	64.8558	12.909701	16.405753
81	6	4	-0.66341273	65.609212	11.660745	16.615703
82	6	4	-0.66341273	65.476336	13.994079	15.628525
83	6	5	-0.98629526	64.503794	13.449185	17.872965
84	6	3	1.5785306	65.71012	14.332995	18.449451
85	6	4	-0.66341273	66.974483	13.628825	18.17385
86	6	4	-0.66341273	65.495095	15.689167	17.91869
87	6	1	0.53867169	65.529251	14.438175	20.363798
88	6	2	-0.26574309	64.321256	14.969858	20.73947
89	6	2	-0.26574309	65.6287	13.20394	20.955796
90	6	2	-0.26574309	66.505136	15.227222	20.919654
91	7	1	0.53867169	16.800828	42.545233	24.385321
92	7	2	-0.26574303	17.071693	43.772945	24.938538
93	7	2	-0.26574303	17.843547	42.244053	23.548005
94	7	2	-0.26574303	15.684121	42.685242	23.603325
95	7	3	1.5785306	16.567801	41.198907	25.73889
96	7	4	-0.66341273	15.531937	41.678529	26.663814
97	7	4	-0.66341273	16.36354	39.912429	25.052345
98	7	5	-0.98629526	17.920437	41.124911	26.606448
99	7	3	1.5785306	17.980676	39.746459	27.42847
100	7	4	-0.66341273	16.697087	39.569209	28.125153
101	7	4	-0.66341273	18.414937	38.717015	26.468816
102	7	1	0.53867169	19.352649	39.879043	28.765464
103	7	2	-0.26574309	20.583432	40.115056	28.209252
104	7	2	-0.26574309	19.110687	40.902109	29.640808
105	7	2	-0.26574309	19.445244	38.721511	29.494071
106	8	1	0.53867169	76.982393	24.003685	43.347034
107	8	2	-0.26574303	77.749829	25.125344	43.155608
108	8	2	-0.26574303	77.837362	23.03663	43.817725
109	8	2	-0.26574303	76.535592	23.594654	42.118034
110	8	3	1.5785306	75.538583	24.320631	44.577036
111	8	4	-0.66341273	74.7438	25.443501	44.0518
112	8	4	-0.66341273	74.903135	23.019347	44.835048
113	8	5	-0.98629526	76.185431	24.850364	45.945935
114	8	3	1.5785306	75.151987	24.651659	47.162867
115	8	4	-0.66341273	73.799353	24.999917	46.699963
116	8	4	-0.66341273	75.45342	23.296244	47.655182
117	8	1	0.53867169	75.650721	25.878031	48.558078
118	8	2	-0.26574309	76.96629	25.698164	48.917127
119	8	2	-0.26574309	75.521894	27.184474	48.164086
120	8	2	-0.26574309	74.904156	25.702212	49.692411
121	9	1	0.53867169	6.9354641	49.515171	1.7061447
122	9	2	-0.26574303	7.6764238	50.41347	0.9844669
123	9	2	-0.26574303	6.6852403	48.42936	0.90961128
124	9	2	-0.26574303	5.7163322	50.110335	1.9037895
125	9	3	1.5785306	7.7817881	49.091945	3.4038487
126	9	4	-0.66341273	7.3975229	50.159969	4.3416369
127	9	4	-0.66341273	7.4539328	47.720475	3.8261822
128	9	5	-0.98629526	9.3857718	49.278626	3.3800593
129	9	3	1.5785306	10.081958	48.045144	2.6381791
130	9	4	-0.66341273	10.13011	46.953363	3.6229032
131	9	4	-0.66341273	9.3590981	47.871909	1.3748519
132	9	1	0.53867169	11.895869	48.51984	2.2336864
133	9	2	-0.26574309	11.962452	49.647593	1.4590509
134	9	2	-0.26574309	12.606052	48.772068	3.3793628
135	9	2	-0.26574309	12.54643	47.513356	1.569593
136	10	1	0.53867169	54.301133	33.793995	54.15864
137	10	2	-0.26574303	53.321252	34.693787	53.830748
138	10	2	-0.26574303	54.568515	33.933141	55.493851
139	10	2	-0.26574303	55.447187	34.182863	53.509531
140	10	3	1.5785306	53.824949	31.984174	53.65068
141	10	4	-0.66341273	54.184909	31.790836	52.23433
142	10	4	-0.66341273	54.418578	31.001577	54.569569
143	10	5	-0.98629526	52.23774	31.712475	53.593974
144	10	3	1.5785306	51.652689	31.450591	55.057974
145	10	4	-0.66341273	51.838298	30.00165	55.262451
146	10	4	-0.66341273	52.295794	32.402675	55.969543
147	10	1	0.53867169	49.763203	31.80337	55.064096
148	10	2	-0.26574309	49.481077	33.099382	54.720402
149	10	2	-0.26574309	49.099569	30.989647	54.182892
150	10	2	-0.26574309	49.22061	31.578872	56.303787
151	11	1	0.53867169	39.553037	59.755139	57.54169
152	11	2	-0.26574303	38.616979	60.095057	58.482065
153	11	2	-0.26574303	39.145379	60.301738	56.361351
154	11	2	-0.26574303	39.498799	58.392949	57.413883
155	11	3	1.5785306	41.292067	60.341425	58.108397
156	11	4	-0.66341273	41.540494	59.626384	59.368696
157	11	4	-0.66341273	42.238584	60.201502	56.988091
158	11	5	-0.98629526	41.193457	61.89733	58.491945
159	11	3	1.5785306	42.658796	62.509327	58.713169
160	11	4	-0.66341273	43.454609	61.563253	59.505315
161	11	4	-0.66341273	43.139219	62.893786	57.374587
162	11	1	0.53867169	42.514176	64.116735	59.748888
163	11	2	-0.26574309	41.801238	65.084896	59.092512
164	11	2	-0.26574309	41.891241	63.892303	60.947981
165	11	2	-0.26574309	43.754091	64.635315	60.019231
166	12	1	0.53867169	28.175316	55.477715	25.223286
167	12	2	-0.26574303	29.370625	54.960604	25.655982
168	12	2	-0.26574303	27.467654	54.435983	24.678907
169	12	2	-0.26574303	28.466594	56.348939	24.206281
170	12	3	1.5785306	27.217855	56.350703	26.640284
171	12	4	-0.66341273	28.142109	57.327471	27.239695
172	12	4	-0.66341273	25.929782	56.797624	26.086707
173	12	5	-0.98629526	26.935873	55.280375	27.796984
174	12	3	1.5785306	25.730138	55.783048	28.729918
175	12	4	-0.66341273	25.87307	57.232485	28.966682
176	12	4	-0.66341273	24.507794	55.270314	28.089337
177	12	1	0.53867169	25.884802	54.904513	30.441632
178	12	2	-0.26574309	25.848587	53.53672	30.336506
179	12	2	-0.26574309	27.05971	55.214701	31.077776
180	12	2	-0.26574309	24.865415	55.258861	31.28938
181	13	1	0.53867169	15.941559	24.672873	63.130388
182	13	2	-0.26574303	16.193111	24.936202	61.807075
183	13	2	-0.26574303	16.751246	23.621244	63.476186
184	13	2	-0.26574303	14.642189	24.246705	63.227801
185	13	3	1.5785306	16.301928	26.218102	64.217772
186	13	4	-0.66341273	15.495116	27.33155	63.696074
187	13	4	-0.66341273	16.219316	25.814557	65.631113
188	13	5	-0.98629526	17.818358	26.668377	63.935146
189	13	3	1.5785306	18.340265	27.634773	65.114965
190	13	4	-0.66341273	17.275478	28.58937	65.474224
191	13	4	-0.66341273	18.868735	26.732523	66.151853
192	13	1	0.53867169	19.810212	28.649752	64.415774
193	13	2	-0.26574309	20.827241	27.832954	63.99169
194	13	2	-0.26574309	19.425011	29.392064	63.327179
195	13	2	-0.26574309	20.319455	29.509904	65.351863
196	14	1	0.53867169	10.351821	59.8106	27.254
197	14	2	-0.26574303	9.4952881	59.871097	26.184003
198	14	2	-0.26574303	9.5859843	59.681373	28.383319
199	14	2	-0.26574303	10.996957	61.016793	27.327209
200	14	3	1.5785306	11.596467	58.360372	27.074666
201	14	4	-0.66341273	12.279565	58.51397	25.779417
202	14	4	-0.66341273	12.408476	58.313746	28.300736
203	14	5	-0.98629526	10.771468	56.985426	26.917865
204	14	3	1.5785306	11.661999	55.742383	27.403724
205	14	4	-0.66341273	12.964834	55.863323	26.726654
206	14	4	-0.66341273	11.582052	55.728674	28.873909
207	14	1	0.53867169	10.839604	54.131246	26.758077
208	14	2	-0.26574309	9.5522624	53.998618	27.207017
209	14	2	-0.26574309	10.787438	54.12446	25.385673
210	14	2	-0.26574309	11.535403	53.017964	27.146156
211	15	1	0.53867169	53.938704	48.692489	20.461435
212	15	2	-0.26574303	53.65695	49.866962	21.108153
213	15	2	-0.26574303	55.101895	48.886313	19.760419
214	15	2	-0.26574303	52.940888	48.481703	19.545833
215	15	3	1.5785306	54.089675	47.220817	21.688254
216	15	4	-0.66341273	52.920365	47.276988	22.578239
217	15	4	-0.66341273	54.322381	46.006269	20.887489
218	15	5	-0.98629526	55.387549	47.456646	22.604814
219	15	3	1.5785306	55.746045	46.133466	23.446712
220	15	4	-0.66341273	54.520574	45.663548	24.112794
221	15	4	-0.66341273	56.465011	45.249195	22.514992
222	15	1	0.53867169	56.987309	46.644697	24.826462
223	15	2	-0.26574309	58.148737	47.156134	24.307094
224	15	2	-0.26574309	56.455884	47.607937	25.645602
225	15	2	-0.26574309	57.344632	45.596228	25.630541
226	16	1	0.53867169	50.811548	57.395692	61.228375
227	16	2	-0.26574303	51.277785	56.643996	62.278514
228	16	2	-0.26574303	50.138326	58.468375	61.75077
229	16	2	-0.26574303	49.91272	56.611481	60.555906
230	16	3	1.5785306	52.258468	57.930756	60.087581
231	16	4	-0.66341273	52.891402	56.684837	59.619417
232	16	4	-0.66341273	51.743693	58.881016	59.088955
233	16	5	-0.98629526	53.372188	58.643522	61.000237
234	16	3	1.5785306	54.327846	59.576974	60.113716
235	16	4	-0.66341273	54.816904	58.747082	58.997169
236	16	4	-0.66341273	53.576579	60.809908	59.842696
237	16	1	0.53867169	55.862684	60.063853	61.165271
238	16	2	-0.26574309	55.514917	60.768337	62.285643
239	16	2	-0.26574309	56.560173	58.95916	61.582594
240	16	2	-0.26574309	56.737561	60.833626	60.442047
241	17	1	0.53867169	23.240316	37.38539	47.851868
242	17	2	-0.26574303	22.171581	38.124011	48.294683
243	17	2	-0.26574303	22.733824	36.249127	47.268214
244	17	2	-0.26574303	23.946569	36.988981	48.957915
245	17	3	1.5785306	24.333725	38.384516	46.626153
246	17	4	-0.66341273	24.692144	39.641857	47.303319
247	17	4	-0.66341273	25.381289	37.468131	46.150193
248	17	5	-0.98629526	23.404238	38.800426	45.390296
249	17	3	1.5785306	24.290571	39.233594	44.125109
250	17	4	-0.66341273	25.272596	40.227189	44.583364
251	17	4	-0.66341273	24.739096	37.983234	43.494282
252	17	1	0.53867169	23.122852	40.084071	42.854743
253	17	2	-0.26574309	22.125955	39.237974	42.443423
254	17	2	-0.26574309	22.502406	41.192808	43.369017
255	17	2	-0.26574309	23.790219	40.460687	41.720953
256	18	1	0.53867169	60.176067	11.514513	60.409613
257	18	2	-0.26574303	60.40019	12.025027	61.661038
258	18	2	-0.26574303	61.016374	12.123245	59.511638
259	18	2	-0.26574303	58.913822	11.910093	60.054383
260	18	3	1.5785306	60.329552	9.5842874	60.347462
261	18	4	-0.66341273	59.01238	9.0419561	60.722895
262	18	4	-0.66341273	60.872507	9.1895574	59.036665
263	18	5	-0.98629526	61.25762	8.9553183	61.507502
264	18	3	1.5785306	62.805109	9.2500162	61.238818
265	18	4	-0.66341273	63.250856	8.3253855	60.186605
266	18	4	-0.66341273	62.913885	10.687394	60.962596
267	18	1	0.53867169	63.811874	8.8568002	62.824473
268	18	2	-0.26574309	63.390746	9.6086925	63.885007
269	18	2	-0.26574309	63.690352	7.541039	63.187909
270	18	2	-0.26574309	65.145454	9.1063863	62.635469
271	19	1	0.53867169	65.525341	56.975384	11.017876
272	19	2	-0.26574303	66.816788	57.397571	10.838792
273	19	2	-0.26574303	65.159259	56.284575	9.8909962
274	19	2	-0.26574303	64.743838	58.104839	11.077727
275	19	3	1.5785306	65.330691	55.91013	12.607073
276	19	4	-0.66341273	65.84795	56.712356	13.727082
277	19	4	-0.66341273	63.935428	55.442042	12.648342
278	19	5	-0.98629526	66.291537	54.629283	12.514024
279	19	3	1.5785306	65.815268	53.501902	13.553228
280	19	4	-0.66341273	65.409579	54.138412	14.815949
281	19	4	-0.66341273	64.825635	52.706556	12.804648
282	19	1	0.53867169	67.300911	52.343149	13.945104
283	19	2	-0.26574309	67.849269	51.818852	12.802422
284	19	2	-0.26574309	68.30143	52.999034	14.612216
285	19	2	-0.26574309	66.916633	51.280293	14.724237
286	20	1	0.53867169	52.677822	60.242729	52.940063
287	20	2	-0.26574303	51.999559	61.364279	53.342247
288	20	2	-0.26574303	52.402649	59.256721	53.845696
289	20	2	-0.26574303	54.010487	60.541654	53.091984
290	20	3	1.5785306	52.28128	59.772458	51.105738
291	20	4	-0.66341273	52.613034	60.964932	50.305057
292	20	4	-0.66341273	53.009863	58.544397	50.757203
293	20	5	-0.98629526	50.692358	59.620972	50.858531
294	20	3	1.5785306	50.247192	58.085938	50.995851
295	20	4	-0.66341273	50.648594	57.428317	49.744077
296	20	4	-0.66341273	50.763826	57.626181	52.294798
297	20	1	0.53867169	48.321695	57.987242	51.080709
298	20	2	-0.26574309	47.711301	58.433232	49.938445
299	20	2	-0.26574309	47.88538	56.702447	51.274219
300	20	2	-0.26574309	47.809167	58.733449	52.105241
301	21	1	0.53867169	12.60613	9.8838758	21.287909
302	21	2	-0.26574303	12.766778	10.996389	22.070045
303	21	2	-0.26574303	12.327627	10.31466	20.013437
304	21	2	-0.26574303	11.478144	9.2365932	21.725707
305	21	3	1.5785306	14.135706	8.7166423	21.337349
306	21	4	-0.66341273	14.357307	8.3382094	22.741208
307	21	4	-0.66341273	13.888626	7.6497829	20.349295
308	21	5	-0.98629526	15.433148	9.537186	20.883386
309	21	3	1.5785306	16.618499	8.5420322	20.468373
310	21	4	-0.66341273	16.678343	7.4402064	21.440938
311	21	4	-0.66341273	16.374396	8.1929588	19.058359
312	21	1	0.53867169	18.293371	9.486649	20.557818
313	21	2	-0.26574309	18.315912	10.578152	19.728009
314	21	2	-0.26574309	18.560674	9.9365246	21.824875
315	21	2	-0.26574309	19.340843	8.6802626	20.188444
316	22	1	0.53867169	74.214029	67.756338	41.699781
317	22	2	-0.26574303	73.327813	68.448153	42.485442
318	22	2	-0.26574303	73.949475	68.09288	40.395646
319	22	2	-0.26574303	73.929448	66.421866	41.833501
320	22	3	1.5785306	76.043477	68.126001	42.166758
321	22	4	-0.66341273	76.200266	67.858453	43.60507
322	22	4	-0.66341273	76.891313	67.398748	41.202893
323	22	5	-0.98629526	76.311035	69.69593	41.982551
324	22	3	1.5785306	77.878594	69.99568	41.881971
325	22	4	-0.66341273	78.604712	69.176755	42.867498
326	22	4	-0.66341273	78.22711	69.839821	40.456839
327	22	1	0.53867169	78.200703	71.834178	42.339048
328	22	2	-0.26574309	77.536502	72.697229	41.505837
329	22	2	-0.26574309	77.817326	72.121906	43.623505
330	22	2	-0.26574309	79.53887	72.12985	42.242217
331	23	1	0.53867169	58.189216	73.018775	20.192351
332	23	2	-0.26574303	56.835246	72.810812	20.135767
333	23	2	-0.26574303	58.732748	72.506881	19.042336
334	23	2	-0.26574303	58.674955	72.273583	21.235785
335	23	3	1.5785306	58.623142	74.877348	20.410583
336	23	4	-0.66341273	57.883539	75.377979	21.583598
337	23	4	-0.66341273	60.090985	74.986882	20.388303
338	23	5	-0.98629526	58.011823	75.703015	19.17853
339	23	3	1.5785306	58.811579	77.073193	18.965147
340	23	4	-0.66341273	58.958426	77.705083	20.289741
341	23	4	-0.66341273	59.990664	76.725321	18.155133
342	23	1	0.53867169	57.703357	78.250065	17.921081
343	23	2	-0.26574309	57.390566	77.723389	16.694928
344	23	2	-0.26574309	56.515899	78.507977	18.56447
345	23	2	-0.26574309	58.309608	79.460669	17.705411
346	24	1	0.53867169	48.675036	61.016345	54.515967
347	24	2	-0.26574303	49.366546	61.393828	55.634594
348	24	2	-0.26574303	47.540321	60.365133	54.92825
349	24	2	-0.26574303	49.462905	60.115452	53.862062
350	24	3	1.5785306	48.235273	62.528367	53.430305
351	24	4	-0.66341273	49.443264	63.338704	53.242846
352	24	4	-0.66341273	47.478294	62.06244	52.264605
353	24	5	-0.98629526	47.261434	63.48125	54.253898
354	24	3	1.5785306	46.593914	64.589214	53.289442
355	24	4	-0.66341273	45.400085	63.928785	52.729874
356	24	4	-0.66341273	46.343002	65.673552	54.254079
357	24	1	0.53867169	47.706528	65.327625	51.853452
358	24	2	-0.26574309	46.957002	66.140866	51.050882
359	24	2	-0.26574309	48.734393	66.093078	52.338395
360	24	2	-0.26574309	48.26014	64.420714	50.997643
361	25	1	0.53867169	33.815935	8.0393958	32.328839
362	25	2	-0.26574303	33.506222	9.1482681	33.076952
363	25	2	-0.26574303	32.940185	7.0500469	32.678216
364	25	2	-0.26574303	35.050242	7.614724	32.758148
365	25	3	1.5785306	33.871188	8.4524524	30.435376
366	25	4	-0.66341273	34.981656	9.4050968	30.261803
367	25	4	-0.66341273	33.977275	7.2077125	29.656465
368	25	5	-0.98629526	32.604287	9.3283969	29.961979
369	25	3	1.5785306	31.40754	8.3828574	29.485166
370	25	4	-0.66341273	31.730249	7.97539	28.108251
371	25	4	-0.66341273	31.225321	7.3815477	30.544608
372	25	1	0.53867169	29.787457	9.4274116	29.409823
373	25	2	-0.26574309	29.474411	9.9714941	30.630071
374	25	2	-0.26574309	29.880695	10.468197	28.52109
375	25	2	-0.26574309	28.706262	8.6707515	29.025691
376	26	1	0.53867169	41.954837	33.793926	17.639053
377	26	2	-0.26574303	40.988455	33.61856	16.683966
378	26	2	-0.26574303	41.996088	32.644317	18.384382
379	26	2	-0.26574303	41.493311	34.813817	18.431886
380	26	3	1.5785306	43.664927	34.184577	16.813828
381	26	4	-0.66341273	43.724995	33.436534	15.547316
382	26	4	-0.66341273	43.838692	35.641911	16.683381
383	26	5	-0.98629526	44.916716	33.557551	17.611347
384	26	3	1.5785306	45.287523	34.456007	18.878741
385	26	4	-0.66341273	46.086955	35.577159	18.368201
386	26	4	-0.66341273	44.026418	34.734726	19.575046
387	26	1	0.53867169	46.414061	33.430767	20.064065
388	26	2	-0.26574309	45.790801	32.292833	20.506907
389	26	2	-0.26574309	47.579298	33.030562	19.461986
390	26	2	-0.26574309	46.780796	34.152923	21.171277
391	27	1	0.53867169	41.317358	26.717734	73.959498
392	27	2	-0.26574303	40.01142	26.618378	74.367208
393	27	2	-0.26574303	41.896105	27.727394	74.685016
394	27	2	-0.26574303	41.298018	27.127633	72.650304
395	27	3	1.5785306	42.266283	25.054462	74.158044
396	27	4	-0.66341273	41.479726	24.019542	73.464394
397	27	4	-0.66341273	43.654075	25.296376	73.72642
398	27	5	-0.98629526	42.263703	24.647424	75.708961
399	27	3	1.5785306	43.427091	23.591652	76.024623
400	27	4	-0.66341273	43.401532	22.543123	74.990692
401	27	4	-0.66341273	44.659286	24.379413	76.194463
402	27	1	0.53867169	43.050847	22.738757	77.708869
403	27	2	-0.26574309	42.981143	23.640721	78.739905
404	27	2	-0.26574309	41.859369	22.059381	77.681942
405	27	2	-0.26574309	44.024105	21.827676	78.034673
406	28	1	0.53867169	41.538134	44.5713	44.327722
407	28	2	-0.26574303	41.157494	44.509225	45.642042
408	28	2	-0.26574303	40.395083	44.658637	43.575721
409	28	2	-0.26574303	42.137899	43.376079	44.023867
410	28	3	1.5785306	42.719064	46.047301	43.99241
411	28	4	-0.66341273	43.884044	45.884442	44.880037
412	28	4	-0.66341273	42.934542	46.109986	42.537141
413	28	5	-0.98629526	42.003455	47.403598	44.467902
414	28	3	1.5785306	42.668238	48.667922	43.735018
415	28	4	-0.66341273	44.128284	48.476629	43.699403
416	28	4	-0.66341273	41.913738	48.791008	42.476487
417	28	1	0.53867169	42.322373	50.25434	44.764471
418	28	2	-0.26574309	40.985389	50.406637	45.026331
419	28	2	-0.26574309	42.980518	50.23448	45.964999
420	28	2	-0.26574309	42.727304	51.379614	44.096522
421	29	1	0.53867169	57.288976	38.825734	26.634169
422	29	2	-0.26574303	58.277588	38.3125	25.833223
423	29	2	-0.26574303	57.88466	39.530482	27.646434
424	29	2	-0.26574303	56.687646	37.756734	27.249954
425	29	3	1.5785306	55.987477	39.844246	25.607965
426	29	4	-0.66341273	55.077548	38.879037	24.966259
427	29	4	-0.66341273	55.312233	40.851636	26.44208
428	29	5	-0.98629526	56.603165	40.568237	24.306471
429	29	3	1.5785306	57.3423	41.929083	24.706025
430	29	4	-0.66341273	56.281614	42.946005	24.759498
431	29	4	-0.66341273	58.150449	41.634378	25.893919
432	29	1	0.53867169	58.553357	42.418976	23.285856
433	29	2	-0.26574309	59.539447	41.483574	23.112123
434	29	2	-0.26574309	57.921329	42.546687	22.075293
435	29	2	-0.26574309	59.181585	43.614826	23.532505
436	30	1	0.53867169	68.936701	19.66828	61.445465
437	30	2	-0.26574303	69.231405	20.824528	60.773125
438	30	2	-0.26574303	68.541818	20.01986	62.714491
439	30	2	-0.26574303	70.099063	18.953075	61.574759
440	30	3	1.5785306	67.57545	18.639569	60.563588
441	30	4	-0.66341273	68.014889	18.392766	59.181337
442	30	4	-0.66341273	67.258854	17.508992	61.458635
443	30	5	-0.98629526	66.262822	19.542505	60.430703
444	30	3	1.5785306	64.960709	18.633304	60.227351
445	30	4	-0.66341273	65.291481	17.465289	59.39353
446	30	4	-0.66341273	64.461403	18.420607	61.597376
447	30	1	0.53867169	63.646393	19.650904	59.259448
448	30	2	-0.26574309	63.309574	20.817537	59.894772
449	30	2	-0.26574309	64.098263	19.986784	58.008928
450	30	2	-0.26574309	62.483664	18.946499	59.07443
451	31	1	0.53867169	63.679795	43.235073	49.297667
452	31	2	-0.26574303	64.099059	41.971812	48.974891
453	31	2	-0.26574303	64.510584	43.707023	50.283265
454	31	2	-0.26574303	62.42887	43.130045	49.848189
455	31	3	1.5785306	63.660302	44.408097	47.776809
456	31	4	-0.66341273	62.788243	43.803663	46.754341
457	31	4	-0.66341273	63.32057	45.75139	48.279223
458	31	5	-0.98629526	65.126157	44.45581	47.142959
459	31	3	1.5785306	65.301228	45.739565	46.197834
460	31	4	-0.66341273	64.072485	45.911188	45.401063
461	31	4	-0.66341273	65.717168	46.826196	47.0928
462	31	1	0.53867169	66.749325	45.414515	44.967666
463	31	2	-0.26574309	67.939711	45.168223	45.598903
464	31	2	-0.26574309	66.497231	44.33702	44.15854
465	31	2	-0.26574309	66.959324	46.490865	44.145122
466	32	1	0.53867169	38.297138	49.305897	52.417731
467	32	2	-0.26574303	38.96327	50.330143	51.793957
468	32	2	-0.26574303	36.972845	49.658265	52.450428
469	32	2	-0.26574303	38.732965	49.299693	53.717756
470	32	3	1.5785306	38.589156	47.603068	51.557455
471	32	4	-0.66341273	40.04508	47.44091	51.403198
472	32	4	-0.66341273	37.842536	46.59564	52.326336
473	32	5	-0.98629526	38.020833	47.682352	50.055165
474	32	3	1.5785306	37.591677	46.228051	49.540138
475	32	4	-0.66341273	38.672814	45.284963	49.87072
476	32	4	-0.66341273	36.226802	46.017919	50.044613
477	32	1	0.53867169	37.47911	46.274524	47.615972
478	32	2	-0.26574309	36.675837	47.287598	47.156053
479	32	2	-0.26574309	38.705864	46.459522	47.033072
480	32	2	-0.26574309	36.985555	45.106101	47.09414
481	33	1	0.53867169	78.691683	55.074167	66.200261
482	33	2	-0.26574303	78.21682	53.787661	66.135359
483	33	2	-0.26574303	79.183779	55.38753	64.961987
484	33	2	-0.26574303	79.761662	55.039058	67.06172
485	33	3	1.5785306	77.340732	56.308823	66.79893
486	33	4	-0.66341273	76.780148	55.751796	68.04595
487	33	4	-0.66341273	77.946057	57.647257	66.807976
488	33	5	-0.98629526	76.115842	56.27449	65.769415
489	33	3	1.5785306	75.280337	57.641559	65.851254
490	33	4	-0.66341273	75.106955	57.988949	67.275157
491	33	4	-0.66341273	75.949392	58.572993	64.933338
492	33	1	0.53867169	73.512659	57.312479	65.16233
493	33	2	-0.26574309	73.526988	56.877971	63.862581
494	33	2	-0.26574309	72.856879	56.356955	65.899129
495	33	2	-0.26574309	72.733002	58.439922	65.21595
496	34	1	0.53867169	42.439466	9.9649823	55.43828
497	34	2	-0.26574303	43.160686	10.883386	56.160603
498	34	2	-0.26574303	41.520162	9.4215494	56.298404
499	34	2	-0.26574303	43.303032	8.9656621	55.073242
500	34	3	1.5785306	41.593142	10.774919	53.913097
501	34	4	-0.66341273	42.65008	11.420716	53.121428
502	34	4	-0.66341273	40.744343	9.7501045	53.282032
503	34	5	-0.98629526	40.652647	11.970513	54.440503
504	34	3	1.5785306	39.579184	12.371857	53.30718
505	34	4	-0.66341273	40.258594	12.41205	52.003016
506	34	4	-0.66341273	38.453243	11.44713	53.510828
507	34	1	0.53867169	38.952119	14.150332	53.683157
508	34	2	-0.26574309	38.488021	14.257483	54.96779
509	34	2	-0.26574309	39.955039	15.075527	53.558393
510	34	2	-0.26574309	37.938588	14.524999	52.840285
511	35	1	0.53867169	63.993735	25.86616	32.896986
512	35	2	-0.26574303	63.758659	25.840924	34.248247
513	35	2	-0.26574303	65.083318	25.062883	32.6704
514	35	2	-0.26574303	64.331579	27.147627	32.559717
515	35	3	1.5785306	62.454228	25.248983	31.930704
516	35	4	-0.66341273	61.271486	25.973024	32.418845
517	35	4	-0.66341273	62.75969	25.240366	30.495999
518	35	5	-0.98629526	62.162104	23.741691	32.361038
519	35	3	1.5785306	61.15447	23.031747	31.326568
520	35	4	-0.66341273	61.969957	22.582107	30.18507
521	35	4	-0.66341273	60.608044	21.949127	32.155614
522	35	1	0.53867169	59.645119	24.10207	30.738533
523	35	2	-0.26574309	58.884077	24.50676	31.803033
524	35	2	-0.26574309	59.971261	25.211885	30.007882
525	35	2	-0.26574309	58.829288	23.361518	29.934084
526	36	1	0.53867169	61.873355	56.068077	22.483268
527	36	2	-0.26574303	62.32173	57.247238	23.017466
528	36	2	-0.26574303	61.672635	55.172696	23.500409
529	36	2	-0.26574303	62.907848	55.546889	21.74674
530	36	3	1.5785306	60.320683	56.323853	21.348205
531	36	4	-0.66341273	60.824647	56.672554	20.007651
532	36	4	-0.66341273	59.447761	55.138721	21.376386
533	36	5	-0.98629526	59.436398	57.618332	21.708317
534	36	3	1.5785306	58.529768	57.338958	22.997286
535	36	4	-0.66341273	57.306309	56.715655	22.463236
536	36	4	-0.66341273	59.356852	56.597085	23.954725
537	36	1	0.53867169	58.038983	59.008317	23.813553
538	36	2	-0.26574309	59.140296	59.697785	24.247732
539	36	2	-0.26574309	57.361293	59.816141	22.937903
540	36	2	-0.26574309	57.229934	58.808098	24.902632
541	37	1	0.53867169	21.377366	70.140982	41.729918
542	37	2	-0.26574303	20.912142	71.430593	41.651297
543	37	2	-0.26574303	21.184909	69.56449	40.501561
544	37	2	-0.26574303	20.584128	69.47444	42.626486
545	37	3	1.5785306	23.224399	70.09079	42.255831
546	37	4	-0.66341273	23.328021	70.809698	43.53549
547	37	4	-0.66341273	23.67681	68.696022	42.139091