Title

12990 atoms
12690 bonds
23070 angles
35760 dihedrals
3150 impropers

12 atom types
12 bond types
9 angle types
29 dihedral types
4 improper types
-3.833588064 76.16641194 xlo xhi
-8.287121654 71.71287835 ylo yhi
-6.612535119 73.38746488 zlo zhi
0.0 0.0 0.0 xy xz yz

Masses

1	12.01078
2	18.998403
3	32.0655
4	15.99943
5	14.00672
6	12.01078
7	1.007947
8	1.007947
9	1.007947
10	1.007947
11	1.007947
12	15.99943


Pair Coeffs

1	0.10884061	3.3795318
2	0.061	3.1181455
3	0.25	3.5635949
4	0.2102061	3.0398122
5	0.16769152	3.206876
6	0.086879315	3.4806469
7	0.015779483	2.6445434
8	0.016409246	2.5832257
9	0.013106998	2.4536265
10	0.0157	1.9599772
11	0.014797445	2.4419228
12	0.16846514	3.0251065

Bond Coeffs

1 harmonic	287.91882093395	1.359315559786
2 harmonic	156.8711507117	1.812798632943
3 harmonic	608.035974961	1.469758533467
4 harmonic	239.8447873633	1.642019753341
5 harmonic	215.30139056395	1.533627603844
6 harmonic	357.8191474159	1.094206460752
7 harmonic	225.97114073395	1.477375101044
8 harmonic	329.26307138675	1.389502949007
9 harmonic	452.0241811971	1.373209032276
10 harmonic	386.4399368291	1.08603610657
11 harmonic	505.163639116	1.309372378949
12 harmonic	227.0371466687	1.436323905911


Angle Coeffs

1 harmonic	119.7125597221	107.2128707706
2 harmonic	66.75631831595	109.9380527584
3 harmonic	124.0884341307	113.2116558678
4 harmonic	94.25109102650001	120.4494266916
5 harmonic	79.47831834420001	121.7705343867
6 harmonic	91.51855890415	108.1730591511
7 harmonic	50.901762366	124.801611398
8 harmonic	36.776637850755	108.3543135269
9 harmonic	119.8958895535	112.8736161145


Dihedral Coeffs

1 fourier 1	-1.572239594429	1	180
2 fourier 1	0.316444679891	2	0
3 fourier 1	0.1426731536269	3	0
4 fourier 1	0.2057583936885	3	0
5 fourier 1	0.3549667638131	3	0
6 fourier 1	0.2399307824079	2	180
7 fourier 1	0.9156101580834	1	180
8 fourier 1	0.0985377828486	3	0
9 fourier 1	0.143904881748	3	0
10 fourier 1	0.3215160932459	2	0
11 fourier 1	0.2510071310501	3	0
12 fourier 1	-0.1108037280545	4	180
13 fourier 1	-0.2219080374426	3	180
14 fourier 1	0.8434650381516	2	0
15 fourier 1	-0.1523281600983	1	0
16 fourier 1	1.469128273675	2	180
17 fourier 1	4.626306460904	2	180
18 fourier 1	1.012490953194	2	180
19 fourier 1	1.409955177277	2	180
20 fourier 1	1.079567853188	2	180
21 fourier 1	1.601769915929	1	0
22 fourier 1	0.2279946533057	3	0
23 fourier 1	0.3102287948961	3	0
24 fourier 1	-0.04857068407726	2	180
25 fourier 1	0.2631113656674667	3	0
26 fourier 1	-0.01533770820035	3	0
27 fourier 1	0.4191503124266	2	0
28 fourier 1	0.1311347012225	3	0
29 fourier 1	0.436546671918	1	0


Improper Coeffs

1 5.335286357863333	-1	2
2 1.743596855104667	-1	2
3 3.374156584723333	-1	2
4 0.4187541668506667	-1	2


Atoms

1	1	1	0.53867169	7.9080552	25.203044	61.629896
2	1	2	-0.26574303	8.7131828	25.339239	62.73005
3	1	2	-0.26574303	6.834473	26.036355	61.803093
4	1	2	-0.26574303	7.4329662	23.916502	61.627069
5	1	3	1.5785306	8.8611084	25.589676	60.006299
6	1	4	-0.66341273	10.055709	24.734297	59.962058
7	1	4	-0.66341273	7.9143286	25.492055	58.882251
8	1	5	-0.98629526	9.3410105	27.116868	60.020313
9	1	3	1.5785306	10.620483	27.336326	59.064498
10	1	4	-0.66341273	10.362703	26.619413	57.803874
11	1	4	-0.66341273	10.673714	28.804829	58.975549
12	1	1	0.53867169	12.281046	26.726763	59.863315
13	1	2	-0.26574309	12.198441	26.671133	61.230202
14	1	2	-0.26574309	12.671652	25.491302	59.407673
15	1	2	-0.26574309	13.315471	27.572627	59.561129
16	2	1	0.53867169	34.630816	36.040812	40.70374
17	2	2	-0.26574303	33.906798	36.74047	39.773581
18	2	2	-0.26574303	34.920835	36.91411	41.719213
19	2	2	-0.26574303	35.817766	35.698256	40.113969
20	2	3	1.5785306	33.684506	34.495382	41.329021
21	2	4	-0.66341273	33.379526	33.666623	40.151129
22	2	4	-0.66341273	34.471326	33.932068	42.439475
23	2	5	-0.98629526	32.276404	34.98616	41.898341
24	2	3	1.5785306	31.629868	33.880892	42.856579
25	2	4	-0.66341273	31.893647	32.544641	42.300467
26	2	4	-0.66341273	32.119119	34.228897	44.204717
27	2	1	0.53867169	29.721513	34.127171	42.830658
28	2	2	-0.26574309	29.351838	35.350282	43.330545
29	2	2	-0.26574309	29.212604	34.039824	41.559281
30	2	2	-0.26574309	29.074557	33.174646	43.568659
31	3	1	0.53867169	66.22046	55.930119	16.017622
32	3	2	-0.26574303	66.783395	56.089339	14.779259
33	3	2	-0.26574303	64.863014	55.882392	15.840443
34	3	2	-0.26574303	66.483474	57.069855	16.735815
35	3	3	1.5785306	66.866002	54.352856	16.91106
36	3	4	-0.66341273	68.332076	54.445615	16.947347
37	3	4	-0.66341273	66.083264	54.209375	18.154242
38	3	5	-0.98629526	66.535664	53.078151	15.999658
39	3	3	1.5785306	66.678743	51.716008	16.845173
40	3	4	-0.66341273	67.805147	51.830869	17.781061
41	3	4	-0.66341273	65.326862	51.463609	17.382612
42	3	1	0.53867169	67.086658	50.304675	15.603884
43	3	2	-0.26574309	66.100054	50.173197	14.660795
44	3	2	-0.26574309	68.24441	50.549579	14.911858
45	3	2	-0.26574309	67.222886	49.089241	16.216416
46	4	1	0.53867169	59.377718	42.795978	58.549204
47	4	2	-0.26574303	59.544086	44.131026	58.276849
48	4	2	-0.26574303	59.614787	42.615099	59.886403
49	4	2	-0.26574303	60.349636	42.102947	57.871852
50	4	3	1.5785306	57.628193	42.181873	58.058262
51	4	4	-0.66341273	57.413397	42.582664	56.660714
52	4	4	-0.66341273	57.551427	40.759535	58.443666
53	4	5	-0.98629526	56.546121	42.999449	58.907504
54	4	3	1.5785306	55.13978	42.220683	58.919268
55	4	4	-0.66341273	54.875941	41.676984	57.57947
56	4	4	-0.66341273	55.241261	41.281252	60.050044
57	4	1	0.53867169	53.757691	43.490262	59.331856
58	4	2	-0.26574309	53.97912	44.096918	60.544105
59	4	2	-0.26574309	53.694282	44.488192	58.393383
60	4	2	-0.26574309	52.524176	42.895985	59.391074
61	5	1	0.53867169	5.6293136	22.351427	51.835394
62	5	2	-0.26574303	6.2969857	21.850135	52.923164
63	5	2	-0.26574303	6.3695651	22.020862	50.730143
64	5	2	-0.26574303	5.6689107	23.716257	51.956859
65	5	3	1.5785306	3.8209385	21.68977	51.72576
66	5	4	-0.66341273	3.1597263	22.001381	53.00302
67	5	4	-0.66341273	3.2390904	22.174919	50.461683
68	5	5	-0.98629526	3.853806	20.092592	51.680632
69	5	3	1.5785306	2.4691683	19.511859	51.109233
70	5	4	-0.66341273	1.3522846	20.32481	51.627216
71	5	4	-0.66341273	2.6663181	19.437628	49.651513
72	5	1	0.53867169	2.2324808	17.722156	51.76805
73	5	2	-0.26574309	3.3026239	16.920595	51.464877
74	5	2	-0.26574309	2.0856248	17.707345	53.131413
75	5	2	-0.26574309	1.1150286	17.132057	51.236234
76	6	1	0.53867169	38.950968	69.257793	33.918488
77	6	2	-0.26574303	39.025733	67.971463	33.462393
78	6	2	-0.26574303	38.822377	70.068798	32.821946
79	6	2	-0.26574303	40.145049	69.564962	34.513803
80	6	3	1.5785306	37.476408	69.480524	35.12604
81	6	4	-0.66341273	37.621434	68.515072	36.21829
82	6	4	-0.66341273	37.327821	70.918555	35.396531
83	6	5	-0.98629526	36.134448	69.014673	34.398723
84	6	3	1.5785306	34.842234	69.497776	35.239713
85	6	4	-0.66341273	34.586148	70.872655	34.77654
86	6	4	-0.66341273	33.855612	68.495598	34.806318
87	6	1	0.53867169	34.948499	69.423857	37.18884
88	6	2	-0.26574309	35.177515	68.153176	37.646005
89	6	2	-0.26574309	35.880628	70.262599	37.738974
90	6	2	-0.26574309	33.753982	69.804139	37.737749
91	7	1	0.53867169	31.384735	69.416733	21.020315
92	7	2	-0.26574303	30.95974	70.482774	20.271649
93	7	2	-0.26574303	30.269761	68.739014	21.437926
94	7	2	-0.26574303	31.995502	69.932365	22.135599
95	7	3	1.5785306	32.589214	68.288703	20.034695
96	7	4	-0.66341273	33.682289	69.139566	19.524468
97	7	4	-0.66341273	32.949636	67.154427	20.899396
98	7	5	-0.98629526	31.862688	67.762508	18.706768
99	7	3	1.5785306	32.47488	66.357279	18.242644
100	7	4	-0.66341273	33.945823	66.458435	18.321818
101	7	4	-0.66341273	31.762984	65.333734	19.019634
102	7	1	0.53867169	32.039745	66.094851	16.386575
103	7	2	-0.26574309	30.687215	66.042714	16.168163
104	7	2	-0.26574309	32.535572	67.11288	15.609325
105	7	2	-0.26574309	32.58225	64.932303	15.902027
106	8	1	0.53867169	84.508038	52.650065	15.830822
107	8	2	-0.26574303	84.445267	51.575832	16.680096
108	8	2	-0.26574303	83.469667	52.558403	14.945909
109	8	2	-0.26574303	85.644321	52.492337	15.078677
110	8	3	1.5785306	84.573402	54.325633	16.803505
111	8	4	-0.66341273	85.988731	54.531388	17.170787
112	8	4	-0.66341273	83.946905	55.393319	16.012151
113	8	5	-0.98629526	83.872528	54.25127	18.251839
114	8	3	1.5785306	82.276154	54.255404	18.11538
115	8	4	-0.66341273	81.856441	55.636206	17.835813
116	8	4	-0.66341273	81.94644	53.199601	17.150048
117	8	1	0.53867169	81.502218	53.748646	19.800615
118	8	2	-0.26574309	81.915522	52.499137	20.189857
119	8	2	-0.26574309	81.838408	54.618883	20.805171
120	8	2	-0.26574309	80.132475	53.718348	19.727672
121	9	1	0.53867169	51.73749	4.1479748	25.209162
122	9	2	-0.26574303	52.466698	4.8792407	26.112309
123	9	2	-0.26574303	50.812445	4.997918	24.656322
124	9	2	-0.26574303	51.041846	3.202996	25.9196
125	9	3	1.5785306	52.857995	3.3416888	23.86842
126	9	4	-0.66341273	53.918996	2.5932291	24.564309
127	9	4	-0.66341273	51.978579	2.614949	22.938952
128	9	5	-0.98629526	53.615003	4.511407	23.069777
129	9	3	1.5785306	54.097328	3.984336	21.639199
130	9	4	-0.66341273	54.739051	2.6686534	21.821997
131	9	4	-0.66341273	52.92417	4.1332817	20.760627
132	9	1	0.53867169	55.429072	5.196501	20.960946
133	9	2	-0.26574309	54.907355	6.451807	20.764627
134	9	2	-0.26574309	56.496582	5.3303802	21.80856
135	9	2	-0.26574309	55.920658	4.7745514	19.753286
136	10	1	0.53867169	16.613959	39.844003	46.567507
137	10	2	-0.26574303	15.494378	40.331492	47.189517
138	10	2	-0.26574303	16.617235	40.34575	45.293498
139	10	2	-0.26574303	16.46355	38.488059	46.461849
140	10	3	1.5785306	18.218756	40.317593	47.507696
141	10	4	-0.66341273	18.075116	39.87664	48.905749
142	10	4	-0.66341273	19.360079	39.800243	46.73358
143	10	5	-0.98629526	18.288556	41.911879	47.580018
144	10	3	1.5785306	19.787663	42.409987	47.795467
145	10	4	-0.66341273	20.382922	41.603112	48.877182
146	10	4	-0.66341273	20.394075	42.429647	46.457167
147	10	1	0.53867169	19.709466	44.226837	48.417854
148	10	2	-0.26574309	19.054704	45.054612	47.540493
149	10	2	-0.26574309	19.032077	44.317732	49.607096
150	10	2	-0.26574309	20.956812	44.755511	48.623042
151	11	1	0.53867169	67.982335	71.603856	10.277244
152	11	2	-0.26574303	67.462463	70.348163	10.089942
153	11	2	-0.26574303	67.972631	72.225208	9.0547508
154	11	2	-0.26574303	69.294157	71.44341	10.641081
155	11	3	1.5785306	66.996145	72.596803	11.598107
156	11	4	-0.66341273	66.885209	71.741714	12.791419
157	11	4	-0.66341273	67.623382	73.923316	11.696396
158	11	5	-0.98629526	65.478697	72.742577	11.087451
159	11	3	1.5785306	64.81298	74.066367	11.707451
160	11	4	-0.66341273	65.158596	74.122868	13.135539
161	11	4	-0.66341273	65.206299	75.15172	10.790503
162	11	1	0.53867169	62.904167	73.874035	11.598988
163	11	2	-0.26574309	62.48878	73.642492	10.311923
164	11	2	-0.26574309	62.468572	72.810121	12.349123
165	11	2	-0.26574309	62.249484	74.990082	12.048926
166	12	1	0.53867169	71.099582	24.714162	9.8603863
167	12	2	-0.26574303	71.51855	26.014469	9.7685528
168	12	2	-0.26574303	69.783254	24.692283	9.4738334
169	12	2	-0.26574303	71.12608	24.379637	11.189365
170	12	3	1.5785306	72.171884	23.519981	8.7933409
171	12	4	-0.66341273	73.578162	23.715756	9.1825736
172	12	4	-0.66341273	71.583257	22.173865	8.9103812
173	12	5	-0.98629526	72.060399	23.974924	7.2625285
174	12	3	1.5785306	72.513518	22.78594	6.2882584
175	12	4	-0.66341273	73.725066	22.159343	6.8472904
176	12	4	-0.66341273	71.30034	21.966739	6.1115354
177	12	1	0.53867169	72.971702	23.514662	4.569883
178	12	2	-0.26574309	71.914387	24.18123	4.0048209
179	12	2	-0.26574309	74.019346	24.395206	4.6509963
180	12	2	-0.26574309	73.338914	22.522783	3.6962166
181	13	1	0.53867169	16.566168	87.398987	36.724701
182	13	2	-0.26574303	16.45326	86.283903	37.513435
183	13	2	-0.26574303	17.878026	87.797613	36.795273
184	13	2	-0.26574303	15.816624	88.389692	37.302325
185	13	3	1.5785306	16.024523	87.062778	34.906988
186	13	4	-0.66341273	14.659864	86.509743	34.949172
187	13	4	-0.66341273	16.305367	88.28702	34.141819
188	13	5	-0.98629526	16.953541	85.898285	34.316137
189	13	3	1.5785306	16.845876	85.854225	32.711174
190	13	4	-0.66341273	15.434074	85.996494	32.321424
191	13	4	-0.66341273	17.840255	86.823139	32.226975
192	13	1	0.53867169	17.431482	84.119444	32.135201
193	13	2	-0.26574309	18.706166	83.850288	32.571709
194	13	2	-0.26574309	16.619731	83.127165	32.620361
195	13	2	-0.26574309	17.449409	84.013672	30.769248
196	14	1	0.53867169	67.910247	55.559936	9.5781797
197	14	2	-0.26574303	68.540277	56.709471	9.9758351
198	14	2	-0.26574303	67.987905	54.655304	10.602254
199	14	2	-0.26574303	68.662744	55.024638	8.5639793
200	14	3	1.5785306	66.103392	55.905662	8.9667916
201	14	4	-0.66341273	66.210599	56.489229	7.6229554
202	14	4	-0.66341273	65.285945	54.681702	9.0640193
203	14	5	-0.98629526	65.375133	57.104359	9.7633982
204	14	3	1.5785306	64.709582	56.564646	11.10716
205	14	4	-0.66341273	63.409553	56.02098	10.677444
206	14	4	-0.66341273	65.694804	55.676575	11.735325
207	14	1	0.53867169	64.394898	58.050208	12.292202
208	14	2	-0.26574309	65.524359	58.801737	12.484604
209	14	2	-0.26574309	63.431044	58.901043	11.810555
210	14	2	-0.26574309	63.987179	57.63875	13.530804
211	15	1	0.53867169	55.563693	52.196751	48.255119
212	15	2	-0.26574303	56.02428	52.97152	49.288573
213	15	2	-0.26574303	56.570992	51.330075	47.919421
214	15	2	-0.26574303	55.370255	53.025599	47.179508
215	15	3	1.5785306	53.949084	51.264386	48.725839
216	15	4	-0.66341273	52.934651	52.275662	49.07094
217	15	4	-0.66341273	53.655043	50.31054	47.642317
218	15	5	-0.98629526	54.198575	50.442696	50.079474
219	15	3	1.5785306	53.120556	49.264488	50.231795
220	15	4	-0.66341273	51.788039	49.791937	49.873486
221	15	4	-0.66341273	53.663917	48.130789	49.469371
222	15	1	0.53867169	53.045259	48.732047	52.079873
223	15	2	-0.26574309	54.258294	48.286319	52.543244
224	15	2	-0.26574309	52.653427	49.768238	52.888417
225	15	2	-0.26574309	52.142363	47.71708	52.269158
226	16	1	0.53867169	72.525029	23.533216	15.885776
227	16	2	-0.26574303	71.898575	23.616214	17.099255
228	16	2	-0.26574303	73.591504	24.39285	15.926181
229	16	2	-0.26574303	71.660476	24.029939	14.947107
230	16	3	1.5785306	73.062677	21.739378	15.464122
231	16	4	-0.66341273	71.931663	20.838392	15.751771
232	16	4	-0.66341273	73.624372	21.765952	14.103434
233	16	5	-0.98629526	74.210715	21.284513	16.479049
234	16	3	1.5785306	75.076427	20.08935	15.853317
235	16	4	-0.66341273	74.143424	19.110925	15.258822
236	16	4	-0.66341273	76.081018	20.727487	14.986824
237	16	1	0.53867169	76.005182	19.195853	17.275549
238	16	2	-0.26574309	76.80263	20.052185	17.988927
239	16	2	-0.26574309	75.122828	18.619095	18.152274
240	16	2	-0.26574309	76.807709	18.195682	16.791363
241	17	1	0.53867169	38.626571	41.459832	15.80817
242	17	2	-0.26574303	38.572326	42.75002	16.266304
243	17	2	-0.26574303	38.251462	40.639563	16.842005
244	17	2	-0.26574303	39.953606	41.187153	15.59989
245	17	3	1.5785306	37.575552	41.217942	14.189131
246	17	4	-0.66341273	38.423231	41.58587	13.039944
247	17	4	-0.66341273	36.979153	39.873264	14.153227
248	17	5	-0.98629526	36.388683	42.303147	14.048973
249	17	3	1.5785306	35.120964	41.878862	14.922295
250	17	4	-0.66341273	34.353609	40.947509	14.077951
251	17	4	-0.66341273	35.627828	41.453109	16.233777
252	17	1	0.53867169	34.012327	43.434529	15.195593
253	17	2	-0.26574309	33.567886	43.965826	14.008884
254	17	2	-0.26574309	32.896833	43.144197	15.938412
255	17	2	-0.26574309	34.677682	44.437265	15.84977
256	18	1	0.53867169	66.52153	29.449699	57.511115
257	18	2	-0.26574303	66.484447	29.516437	58.879499
258	18	2	-0.26574303	66.888914	30.686483	57.051444
259	18	2	-0.26574303	65.236821	29.218233	57.083979
260	18	3	1.5785306	67.711072	28.068111	56.906261
261	18	4	-0.66341273	67.180157	26.791742	57.417202
262	18	4	-0.66341273	67.861562	28.224404	55.449505
263	18	5	-0.98629526	69.127617	28.258231	57.630019
264	18	3	1.5785306	70.296865	27.597942	56.760693
265	18	4	-0.66341273	69.84695	26.255579	56.352262
266	18	4	-0.66341273	70.62923	28.597286	55.731239
267	18	1	0.53867169	71.851544	27.37891	57.870312
268	18	2	-0.26574309	72.201953	28.545446	58.500443
269	18	2	-0.26574309	71.655688	26.436162	58.847013
270	18	2	-0.26574309	72.935119	26.979852	57.133117
271	19	1	0.53867169	12.575973	50.539927	26.704133
272	19	2	-0.26574303	13.853796	50.997443	26.49807
273	19	2	-0.26574303	12.663323	49.352546	27.383547
274	19	2	-0.26574303	12.055146	50.253901	25.466437
275	19	3	1.5785306	11.498237	51.836772	27.636533
276	19	4	-0.66341273	11.571982	53.092427	26.867352
277	19	4	-0.66341273	10.178068	51.229286	27.890131
278	19	5	-0.98629526	12.11623	52.081671	29.089401
279	19	3	1.5785306	11.673094	53.504558	29.67427
280	19	4	-0.66341273	12.653052	54.47577	29.160774
281	19	4	-0.66341273	10.246685	53.698158	29.362538
282	19	1	0.53867169	11.809585	53.460484	31.594923
283	19	2	-0.26574309	10.920051	52.565699	32.139113
284	19	2	-0.26574309	13.056135	53.103404	32.034433
285	19	2	-0.26574309	11.509728	54.680285	32.142928
286	20	1	0.53867169	19.877709	52.918324	28.582988
287	20	2	-0.26574303	20.162182	54.004097	27.798767
288	20	2	-0.26574303	20.604248	53.019304	29.737921
289	20	2	-0.26574303	20.33834	51.818442	27.90772
290	20	3	1.5785306	17.998831	52.810397	28.950596
291	20	4	-0.66341273	17.293216	53.074327	27.682242
292	20	4	-0.66341273	17.754391	51.54057	29.649911
293	20	5	-0.98629526	17.643493	53.941407	30.03679
294	20	3	1.5785306	16.110901	54.37613	29.917955
295	20	4	-0.66341273	16.062026	55.298667	28.77557
296	20	4	-0.66341273	15.331073	53.130436	29.933586
297	20	1	0.53867169	15.658053	55.37818	31.493888
298	20	2	-0.26574309	15.804455	54.613705	32.625318
299	20	2	-0.26574309	16.477097	56.464915	31.650832
300	20	2	-0.26574309	14.369907	55.84518	31.464586
301	21	1	0.53867169	60.630379	50.867572	33.496416
302	21	2	-0.26574303	59.703546	51.277881	32.573128
303	21	2	-0.26574303	60.042667	49.891133	34.258943
304	21	2	-0.26574303	60.873485	51.931539	34.324417
305	21	3	1.5785306	62.24093	50.23581	32.655604
306	21	4	-0.66341273	62.725196	51.313939	31.777892
307	21	4	-0.66341273	63.109541	49.698911	33.717523
308	21	5	-0.98629526	61.855555	49.03039	31.671441
309	21	3	1.5785306	63.158765	48.179975	31.283541
310	21	4	-0.66341273	64.246883	49.115868	30.953724
311	21	4	-0.66341273	63.322544	47.208476	32.378974
312	21	1	0.53867169	62.766848	47.182441	29.68457
313	21	2	-0.26574309	61.698132	46.338129	29.850237
314	21	2	-0.26574309	62.467465	48.005953	28.629456
315	21	2	-0.26574309	63.826613	46.410933	29.288731
316	22	1	0.53867169	7.684747	44.297633	23.120508
317	22	2	-0.26574303	7.6700824	45.109472	22.011864
318	22	2	-0.26574303	7.2555459	43.058014	22.723522
319	22	2	-0.26574303	6.7627954	44.791145	24.005442
320	22	3	1.5785306	9.4393498	44.227319	23.893802
321	22	4	-0.66341273	9.8656839	45.614495	24.140549
322	22	4	-0.66341273	9.4038171	43.273168	25.014377
323	22	5	-0.98629526	10.459503	43.700233	22.766824
324	22	3	1.5785306	11.755913	43.047953	23.448315
325	22	4	-0.66341273	12.223133	43.973799	24.493299
326	22	4	-0.66341273	11.363264	41.677346	23.818641
327	22	1	0.53867169	13.14698	42.906098	22.133305
328	22	2	-0.26574309	12.791754	42.086215	21.092691
329	22	2	-0.26574309	13.45427	44.124727	21.589999
330	22	2	-0.26574309	14.293177	42.391477	22.677729
331	23	1	0.53867169	10.068523	44.179621	30.545135
332	23	2	-0.26574303	8.9620155	44.544935	31.271236
333	23	2	-0.26574303	10.576203	45.312428	29.976122
334	23	2	-0.26574303	9.6276647	43.398814	29.508123
335	23	3	1.5785306	11.326885	43.200736	31.643662
336	23	4	-0.66341273	10.636996	41.976271	32.087138
337	23	4	-0.66341273	12.585871	43.000102	30.908558
338	23	5	-0.98629526	11.579652	43.936377	33.060958
339	23	3	1.5785306	12.855523	44.906712	32.960036
340	23	4	-0.66341273	14.031645	44.033155	33.078644
341	23	4	-0.66341273	12.634603	45.733352	31.766963
342	23	1	0.53867169	12.844036	46.07573	34.485502
343	23	2	-0.26574309	11.72027	46.863461	34.501944
344	23	2	-0.26574309	12.834531	45.369625	35.661259
345	23	2	-0.26574309	13.9328	46.907177	34.505847
346	24	1	0.53867169	41.755323	8.3631313	32.913401
347	24	2	-0.26574303	40.866294	9.1517419	33.599911
348	24	2	-0.26574303	41.978393	7.2376126	33.664348
349	24	2	-0.26574303	42.934175	9.0582925	32.845333
350	24	3	1.5785306	41.093936	7.9364771	31.162717
351	24	4	-0.66341273	40.751805	9.2093492	30.509748
352	24	4	-0.66341273	42.042928	6.999898	30.54034
353	24	5	-0.98629526	39.732018	7.1224838	31.318946
354	24	3	1.5785306	38.897431	7.1187323	29.94241
355	24	4	-0.66341273	39.810479	6.7924851	28.835452
356	24	4	-0.66341273	37.870812	6.1083794	30.236392
357	24	1	0.53867169	37.970612	8.7938899	29.601042
358	24	2	-0.26574309	36.783895	8.5781622	28.951921
359	24	2	-0.26574309	37.665205	9.4575614	30.76268
360	24	2	-0.26574309	38.667018	9.6629888	28.801594
361	25	1	0.53867169	21.644816	56.232758	30.986366
362	25	2	-0.26574303	21.603374	57.408686	31.690893
363	25	2	-0.26574303	20.365851	55.962644	30.575264
364	25	2	-0.26574303	21.997473	55.254474	31.879065
365	25	3	1.5785306	22.881577	56.328998	29.514892
366	25	4	-0.66341273	24.185688	56.724458	30.074832
367	25	4	-0.66341273	22.769091	55.075541	28.752184
368	25	5	-0.98629526	22.446587	57.535658	28.557746
369	25	3	1.5785306	23.117292	57.378802	27.108028
370	25	4	-0.66341273	24.483676	56.845193	27.245941
371	25	4	-0.66341273	22.145455	56.594486	26.321983
372	25	1	0.53867169	23.25352	59.117999	26.302865
373	25	2	-0.26574309	22.041507	59.758878	26.269972
374	25	2	-0.26574309	24.117727	59.929094	26.991413
375	25	2	-0.26574309	23.711154	59.032035	25.012555
376	26	1	0.53867169	65.676646	64.394364	12.43169
377	26	2	-0.26574303	64.835796	64.621243	11.371403
378	26	2	-0.26574303	66.805139	65.142965	12.211614
379	26	2	-0.26574303	66.045237	63.076515	12.394817
380	26	3	1.5785306	64.85538	64.846554	14.105328
381	26	4	-0.66341273	63.637719	64.02864	14.241694
382	26	4	-0.66341273	65.894403	64.735785	15.141473
383	26	5	-0.98629526	64.353414	66.371422	14.028797
384	26	3	1.5785306	64.166727	66.967673	15.506967
385	26	4	-0.66341273	63.529582	65.937772	16.343486
386	26	4	-0.66341273	65.497518	67.483521	15.858784
387	26	1	0.53867169	62.974615	68.473577	15.433913
388	26	2	-0.26574309	63.548284	69.545355	14.803995
389	26	2	-0.26574309	61.830182	68.176513	14.747366
390	26	2	-0.26574309	62.605572	68.893023	16.686386
391	27	1	0.53867169	15.960643	12.650065	54.875135
392	27	2	-0.26574303	15.608689	12.289366	53.600864
393	27	2	-0.26574303	14.895971	13.326943	55.413198
394	27	2	-0.26574303	16.989603	13.54975	54.791255
395	27	3	1.5785306	16.432613	11.129823	55.950222
396	27	4	-0.66341273	17.415533	10.323093	55.204597
397	27	4	-0.66341273	16.806468	11.643471	57.277164
398	27	5	-0.98629526	15.138371	10.189612	56.076245
399	27	3	1.5785306	15.195134	9.3222296	57.421288
400	27	4	-0.66341273	16.523274	8.6813444	57.468109
401	27	4	-0.66341273	14.763644	10.230892	58.495526
402	27	1	0.53867169	13.892328	7.914449	57.303071
403	27	2	-0.26574309	12.622932	8.4023309	57.132845
404	27	2	-0.26574309	14.149578	7.0816731	56.245465
405	27	2	-0.26574309	13.89342	7.137754	58.432031
406	28	1	0.53867169	62.039199	24.5362	25.789752
407	28	2	-0.26574303	63.070154	23.727782	26.198001
408	28	2	-0.26574303	62.614651	25.65882	25.256729
409	28	2	-0.26574303	61.369138	24.922338	26.920927
410	28	3	1.5785306	60.866404	23.650963	24.545584
411	28	4	-0.66341273	60.324488	22.470973	25.241992
412	28	4	-0.66341273	59.944029	24.671233	24.019914
413	28	5	-0.98629526	61.738577	23.173509	23.288
414	28	3	1.5785306	61.028023	21.944971	22.541316
415	28	4	-0.66341273	61.458411	20.749187	23.286772
416	28	4	-0.66341273	59.594741	22.25127	22.412689
417	28	1	0.53867169	61.747494	21.795104	20.766692
418	28	2	-0.26574309	61.54624	22.937274	20.037019
419	28	2	-0.26574309	63.096037	21.551921	20.792503
420	28	2	-0.26574309	61.16508	20.763443	20.077462
421	29	1	0.53867169	41.425276	65.164452	18.087698
422	29	2	-0.26574303	42.658539	65.709891	18.340943
423	29	2	-0.26574303	40.842538	64.893713	19.29487
424	29	2	-0.26574303	41.62518	63.959575	17.467091
425	29	3	1.5785306	40.313439	66.32947	17.049631
426	29	4	-0.66341273	41.002188	66.567698	15.772687
427	29	4	-0.66341273	38.957391	65.75182	17.069626
428	29	5	-0.98629526	40.261087	67.759948	17.77651
429	29	3	1.5785306	38.987157	68.585758	17.260877
430	29	4	-0.66341273	38.837464	68.395076	15.809797
431	29	4	-0.66341273	37.890658	68.184457	18.156008
432	29	1	0.53867169	39.28937	70.454779	17.551082
433	29	2	-0.26574309	38.193498	71.195297	17.186211
434	29	2	-0.26574309	39.535086	70.733724	18.86912
435	29	2	-0.26574309	40.357065	70.907187	16.824929
436	30	1	0.53867169	66.385112	9.7219038	36.342189
437	30	2	-0.26574303	67.459459	8.873077	36.369421
438	30	2	-0.26574303	65.613475	9.4542587	37.43979
439	30	2	-0.26574303	65.609469	9.3588865	35.268033
440	30	3	1.5785306	66.928315	11.577115	36.186042
441	30	4	-0.66341273	67.453513	11.777606	34.826539
442	30	4	-0.66341273	65.808825	12.459705	36.547239
443	30	5	-0.98629526	68.216615	11.950053	37.078114
444	30	3	1.5785306	67.786784	12.372422	38.556426
445	30	4	-0.66341273	67.412949	13.795259	38.440502
446	30	4	-0.66341273	66.810303	11.376659	39.014308
447	30	1	0.53867169	69.325843	12.261406	39.704592
448	30	2	-0.26574309	69.843659	10.992978	39.737396
449	30	2	-0.26574309	70.329232	13.098332	39.287498
450	30	2	-0.26574309	69.023204	12.607298	40.996537
451	31	1	0.53867169	63.237653	29.126365	9.2377388
452	31	2	-0.26574303	62.121634	28.885882	8.4743011
453	31	2	-0.26574303	63.903413	30.16706	8.6443675
454	31	2	-0.26574303	64.045658	28.025501	9.1603535
455	31	3	1.5785306	62.760625	29.544795	11.049139
456	31	4	-0.66341273	61.864123	28.481169	11.531944
457	31	4	-0.66341273	63.99641	29.856784	11.782933
458	31	5	-0.98629526	61.822219	30.852098	11.012924
459	31	3	1.5785306	61.842823	31.58628	12.43892
460	31	4	-0.66341273	61.688967	30.552378	13.472104
461	31	4	-0.66341273	62.99799	32.497225	12.391075
462	31	1	0.53867169	60.270452	32.676849	12.516547
463	31	2	-0.26574309	60.271535	33.644745	11.5464
464	31	2	-0.26574309	59.133658	31.936252	12.319069
465	31	2	-0.26574309	60.141697	33.307381	13.716084
466	32	1	0.53867169	24.974668	58.134503	19.930942
467	32	2	-0.26574303	25.229087	59.018078	20.945518
468	32	2	-0.26574303	25.770066	57.036343	20.138812
469	32	2	-0.26574303	25.382817	58.732533	18.769358
470	32	3	1.5785306	23.11645	57.650385	19.880549
471	32	4	-0.66341273	22.337754	58.880734	19.653289
472	32	4	-0.66341273	22.980492	56.477981	19.0054
473	32	5	-0.98629526	22.699907	57.087083	21.323462
474	32	3	1.5785306	21.100535	57.067599	21.505501
475	32	4	-0.66341273	20.43499	56.903167	20.203469
476	32	4	-0.66341273	20.925729	55.938292	22.438252
477	32	1	0.53867169	20.478384	58.668256	22.385793
478	32	2	-0.26574309	20.927768	59.825878	21.818705
479	32	2	-0.26574309	19.113955	58.741498	22.377231
480	32	2	-0.26574309	20.885112	58.700004	23.687689
481	33	1	0.53867169	67.055755	59.81102	28.603666
482	33	2	-0.26574303	66.046801	58.882284	28.629198
483	33	2	-0.26574303	66.476746	61.042581	28.445513
484	33	2	-0.26574303	67.766762	59.577961	27.455342
485	33	3	1.5785306	68.188534	59.672093	30.17694
486	33	4	-0.66341273	69.216423	58.656778	29.893773
487	33	4	-0.66341273	68.698373	60.991244	30.578914
488	33	5	-0.98629526	67.43073	59.010911	31.439614
489	33	3	1.5785306	66.481643	60.077238	32.156346
490	33	4	-0.66341273	67.331171	60.826101	33.094029
491	33	4	-0.66341273	65.748034	60.780959	31.094418
492	33	1	0.53867169	65.160117	59.14763	33.188651
493	33	2	-0.26574309	64.376082	58.359976	32.389998
494	33	2	-0.26574309	65.712252	58.35741	34.154992
495	33	2	-0.26574309	64.315028	60.024538	33.812654
496	34	1	0.53867169	49.369874	58.764501	10.050476
497	34	2	-0.26574303	49.973707	58.092752	9.0162134
498	34	2	-0.26574303	49.898486	58.266416	11.209729
499	34	2	-0.26574303	48.038321	58.438873	10.023001
500	34	3	1.5785306	49.636679	60.6598	9.8897046
501	34	4	-0.66341273	49.080167	61.064458	8.5870469
502	34	4	-0.66341273	49.122052	61.301985	11.107403
503	34	5	-0.98629526	51.215115	60.938768	9.7658384
504	34	3	1.5785306	51.541133	62.462902	10.154495
505	34	4	-0.66341273	50.56232	63.333912	9.4802773
506	34	4	-0.66341273	51.667318	62.47859	11.619606
507	34	1	0.53867169	53.266997	62.894487	9.4302732
508	34	2	-0.26574309	54.228048	62.010779	9.8514956
509	34	2	-0.26574309	53.261709	62.841668	8.0595535
510	34	2	-0.26574309	53.670874	64.152431	9.7922605
511	35	1	0.53867169	11.102341	33.794503	48.327689
512	35	2	-0.26574303	11.425992	32.69671	49.080033
513	35	2	-0.26574303	10.549852	34.712732	49.18293
514	35	2	-0.26574303	10.121112	33.429446	47.443171
515	35	3	1.5785306	12.631085	34.522889	47.423801
516	35	4	-0.66341273	13.200417	33.478646	46.556435
517	35	4	-0.66341273	12.201277	35.790477	46.811695
518	35	5	-0.98629526	13.769373	34.830604	48.512063
519	35	3	1.5785306	14.787095	35.941489	47.961898
520	35	4	-0.66341273	15.080926	35.649579	46.547475
521	35	4	-0.66341273	14.170069	37.223244	48.335118
522	35	1	0.53867169	16.443664	35.769377	48.930678
523	35	2	-0.26574309	16.256269	35.83843	50.285306
524	35	2	-0.26574309	17.047802	34.564953	48.677645
525	35	2	-0.26574309	17.349955	36.742342	48.596234
526	36	1	0.53867169	65.955529	47.55897	54.259391
527	36	2	-0.26574303	64.801445	48.30092	54.315529
528	36	2	-0.26574303	65.700121	46.483378	53.449512
529	36	2	-0.26574303	66.181321	47.070351	55.520706
530	36	3	1.5785306	67.450891	48.592792	53.625541
531	36	4	-0.66341273	67.575197	49.773641	54.497938
532	36	4	-0.66341273	68.596096	47.679195	53.492646
533	36	5	-0.98629526	67.086339	49.194813	52.186699
534	36	3	1.5785306	68.412156	49.520473	51.351275
535	36	4	-0.66341273	69.384298	50.17344	52.250252
536	36	4	-0.66341273	68.757257	48.265939	50.666213
537	36	1	0.53867169	67.962356	50.820522	50.004768
538	36	2	-0.26574309	66.923947	50.409846	49.211116
539	36	2	-0.26574309	67.594857	52.016115	50.574999
540	36	2	-0.26574309	69.029193	51.09252	49.187584
541	37	1	0.53867169	15.936559	60.319266	13.641199
542	37	2	-0.26574303	14.793752	60.105271	14.360545
543	37	2	-0.26574303	15.563605	60.997305	12.511642
544	37	2	-0.26574303	16.361583	59.071655	13.263953
545	37	3	1.5785306	17.250133	61.309948	14.675356
546	37	4	-0.66341273	16.533329	62.25276	15.544802
547	37	4	-0.66341273	18.167919	60.394006	15.363443