Title

12450 atoms
12150 bonds
22050 angles
33600 dihedrals
2250 impropers

12 atom types
12 bond types
9 angle types
29 dihedral types
4 improper types
-6.790542006 73.20945799 xlo xhi
-11.57168627 68.42831373 ylo yhi
-9.529221058 70.47077894 zlo zhi
0.0 0.0 0.0 xy xz yz

Masses

1	12.01078
2	18.998403
3	32.0655
4	15.99943
5	14.00672
6	12.01078
7	1.007947
8	1.007947
9	1.007947
10	1.007947
11	1.007947
12	15.99943


Pair Coeffs

1	0.10884061	3.3795318
2	0.061	3.1181455
3	0.25	3.5635949
4	0.2102061	3.0398122
5	0.16769152	3.206876
6	0.086879315	3.4806469
7	0.015779483	2.6445434
8	0.016409246	2.5832257
9	0.013106998	2.4536265
10	0.0157	1.9599772
11	0.014797445	2.4419228
12	0.16846514	3.0251065

Bond Coeffs

1 harmonic	287.91882093395	1.359315559786
2 harmonic	156.8711507117	1.812798632943
3 harmonic	608.035974961	1.469758533467
4 harmonic	239.8447873633	1.642019753341
5 harmonic	215.30139056395	1.533627603844
6 harmonic	357.8191474159	1.094206460752
7 harmonic	225.97114073395	1.477375101044
8 harmonic	329.26307138675	1.389502949007
9 harmonic	452.0241811971	1.373209032276
10 harmonic	386.4399368291	1.08603610657
11 harmonic	505.163639116	1.309372378949
12 harmonic	227.0371466687	1.436323905911


Angle Coeffs

1 harmonic	119.7125597221	107.2128707706
2 harmonic	66.75631831595	109.9380527584
3 harmonic	124.0884341307	113.2116558678
4 harmonic	94.25109102650001	120.4494266916
5 harmonic	79.47831834420001	121.7705343867
6 harmonic	91.51855890415	108.1730591511
7 harmonic	50.901762366	124.801611398
8 harmonic	36.776637850755	108.3543135269
9 harmonic	119.8958895535	112.8736161145


Dihedral Coeffs

1 fourier 1	-1.572239594429	1	180
2 fourier 1	0.316444679891	2	0
3 fourier 1	0.1426731536269	3	0
4 fourier 1	0.2057583936885	3	0
5 fourier 1	0.3549667638131	3	0
6 fourier 1	0.2399307824079	2	180
7 fourier 1	0.9156101580834	1	180
8 fourier 1	0.0985377828486	3	0
9 fourier 1	0.143904881748	3	0
10 fourier 1	0.3215160932459	2	0
11 fourier 1	0.2510071310501	3	0
12 fourier 1	-0.1108037280545	4	180
13 fourier 1	-0.2219080374426	3	180
14 fourier 1	0.8434650381516	2	0
15 fourier 1	-0.1523281600983	1	0
16 fourier 1	1.469128273675	2	180
17 fourier 1	4.626306460904	2	180
18 fourier 1	1.012490953194	2	180
19 fourier 1	1.409955177277	2	180
20 fourier 1	1.079567853188	2	180
21 fourier 1	1.601769915929	1	0
22 fourier 1	0.2279946533057	3	0
23 fourier 1	0.3102287948961	3	0
24 fourier 1	-0.04857068407726	2	180
25 fourier 1	0.2631113656674667	3	0
26 fourier 1	-0.01533770820035	3	0
27 fourier 1	0.4191503124266	2	0
28 fourier 1	0.1311347012225	3	0
29 fourier 1	0.436546671918	1	0


Improper Coeffs

1 5.335286357863333	-1	2
2 1.743596855104667	-1	2
3 3.374156584723333	-1	2
4 0.4187541668506667	-1	2


Atoms

1	1	1	0.53867169	50.361004	41.601596	71.068201
2	1	2	-0.26574303	50.427055	40.261312	70.78351
3	1	2	-0.26574303	51.423759	42.191577	70.442119
4	1	2	-0.26574303	50.559783	41.732116	72.417598
5	1	3	1.5785306	48.682933	42.368655	70.519476
6	1	4	-0.66341273	47.621732	41.554699	71.135635
7	1	4	-0.66341273	48.762956	43.817272	70.766864
8	1	5	-0.98629526	48.488164	42.122321	68.936729
9	1	3	1.5785306	47.458653	43.210521	68.344669
10	1	4	-0.66341273	46.325493	43.353639	69.269104
11	1	4	-0.66341273	48.275547	44.391036	68.005562
12	1	1	0.53867169	46.726799	42.554121	66.694188
13	1	2	-0.26574309	47.704945	42.224817	65.798054
14	1	2	-0.26574309	45.951381	41.439624	66.885867
15	1	2	-0.26574309	45.938697	43.505621	66.095414
16	2	1	0.53867169	17.175959	10.099772	62.207193
17	2	2	-0.26574303	17.849717	10.502679	63.33272
18	2	2	-0.26574303	17.745616	8.9245552	61.788173
19	2	2	-0.26574303	17.438461	11.028907	61.234279
20	2	3	1.5785306	15.282327	9.9178231	62.512703
21	2	4	-0.66341273	14.804709	11.191236	63.078327
22	2	4	-0.66341273	14.69396	9.4378942	61.252103
23	2	5	-0.98629526	15.048844	8.8124657	63.647065
24	2	3	1.5785306	13.555546	8.2313055	63.573303
25	2	4	-0.66341273	12.619007	9.3598253	63.433752
26	2	4	-0.66341273	13.572574	7.2006512	62.520866
27	2	1	0.53867169	13.148441	7.3570371	65.2386
28	2	2	-0.26574309	14.015204	6.3296133	65.505705
29	2	2	-0.26574309	13.208175	8.2254058	66.299396
30	2	2	-0.26574309	11.883141	6.8254989	65.224085
31	3	1	0.53867169	44.637313	21.983395	60.651336
32	3	2	-0.26574303	43.80918	21.695938	61.707354
33	3	2	-0.26574303	45.921898	21.754928	61.074047
34	3	2	-0.26574303	44.519944	23.328567	60.40802
35	3	3	1.5785306	44.192696	20.943503	59.095259
36	3	4	-0.66341273	42.747927	21.124921	58.860474
37	3	4	-0.66341273	45.147915	21.309748	58.03863
38	3	5	-0.98629526	44.362912	19.387951	59.463215
39	3	3	1.5785306	44.601264	18.524467	58.134875
40	3	4	-0.66341273	43.594837	18.934699	57.141337
41	3	4	-0.66341273	46.036978	18.630291	57.83885
42	3	1	0.53867169	44.248142	16.676886	58.542204
43	3	2	-0.26574309	44.989362	16.228325	59.605684
44	3	2	-0.26574309	42.928467	16.47054	58.858376
45	3	2	-0.26574309	44.530373	15.860077	57.47879
46	4	1	0.53867169	13.649119	70.443602	70.966744
47	4	2	-0.26574303	13.312917	71.77227	71.016159
48	4	2	-0.26574303	13.06976	69.926262	69.835291
49	4	2	-0.26574303	13.057421	69.829626	72.03711
50	4	3	1.5785306	15.551249	70.18815	70.963326
51	4	4	-0.66341273	16.096207	70.858731	72.15394
52	4	4	-0.66341273	15.798745	68.750973	70.789909
53	4	5	-0.98629526	16.176511	70.96693	69.702687
54	4	3	1.5785306	17.624465	70.360098	69.34144
55	4	4	-0.66341273	18.36609	70.120091	70.592051
56	4	4	-0.66341273	17.343767	69.230018	68.440661
57	4	1	0.53867169	18.609923	71.66431	68.332047
58	4	2	-0.26574309	17.959669	72.005286	67.175784
59	4	2	-0.26574309	18.796085	72.820797	69.041934
60	4	2	-0.26574309	19.84946	71.194339	67.981601
61	5	1	0.53867169	64.594088	62.65295	25.804269
62	5	2	-0.26574303	64.306846	62.946486	27.108431
63	5	2	-0.26574303	64.296088	61.324191	25.625079
64	5	2	-0.26574303	65.950928	62.775702	25.644743
65	5	3	1.5785306	63.617005	63.785324	24.60182
66	5	4	-0.66341273	63.814955	65.165763	25.067823
67	5	4	-0.66341273	63.986039	63.390779	23.231175
68	5	5	-0.98629526	62.057028	63.472466	24.790812
69	5	3	1.5785306	61.21335	64.105349	23.583932
70	5	4	-0.66341273	61.697054	65.464921	23.307128
71	5	4	-0.66341273	61.239157	63.092747	22.514319
72	5	1	0.53867169	59.392662	64.270511	24.159837
73	5	2	-0.26574309	58.764615	63.053679	24.223762
74	5	2	-0.26574309	59.305396	64.838529	25.398803
75	5	2	-0.26574309	58.660669	65.058484	23.312678
76	6	1	0.53867169	35.423548	31.429095	51.913161
77	6	2	-0.26574303	34.996679	32.698252	51.61912
78	6	2	-0.26574303	36.304832	31.035516	50.940943
79	6	2	-0.26574303	34.327855	30.615582	51.76971
80	6	3	1.5785306	36.128614	31.305161	53.718758
81	6	4	-0.66341273	34.962947	31.144717	54.608774
82	6	4	-0.66341273	37.142632	30.243526	53.79632
83	6	5	-0.98629526	36.758442	32.696495	54.250908
84	6	3	1.5785306	38.233523	32.904627	53.678637
85	6	4	-0.66341273	39.117191	32.088568	54.526086
86	6	4	-0.66341273	38.141246	32.63521	52.239184
87	6	1	0.53867169	38.786087	34.836624	53.894815
88	6	2	-0.26574309	37.713463	35.451398	53.20797
89	6	2	-0.26574309	38.237469	35.110753	55.166759
90	6	2	-0.26574309	41.738234	35.799766	53.303757
91	7	1	0.53867169	27.739403	44.861836	60.258169
92	7	2	-0.26574303	26.690555	45.741196	60.188055
93	7	2	-0.26574303	27.252395	43.642015	59.861026
94	7	2	-0.26574303	28.093731	44.746919	61.576881
95	7	3	1.5785306	29.211588	45.401163	59.14772
96	7	4	-0.66341273	29.693472	46.705151	59.63098
97	7	4	-0.66341273	30.125453	44.251428	59.063454
98	7	5	-0.98629526	28.629096	45.687494	57.681499
99	7	3	1.5785306	29.802322	45.63395	56.589804
100	7	4	-0.66341273	30.97641	46.348267	57.124529
101	7	4	-0.66341273	29.893467	44.214301	56.21531
102	7	1	0.53867169	29.192212	46.587954	55.040455
103	7	2	-0.26574309	28.019135	46.054707	54.558544
104	7	2	-0.26574309	28.947926	47.904296	55.332427
105	7	2	-0.26574309	30.111482	46.549244	54.025683
106	8	1	0.53867169	16.983678	37.011073	-8.3891702
107	8	2	-0.26574303	17.124563	36.439705	-7.1513599
108	8	2	-0.26574303	15.941031	36.396537	-9.0255445
109	8	2	-0.26574303	18.10796	36.659005	-9.0950269
110	8	3	1.5785306	16.849566	38.94145	-8.2664609
111	8	4	-0.66341273	18.18917	39.408736	-7.8641826
112	8	4	-0.66341273	16.332743	39.491448	-9.5292211
113	8	5	-0.98629526	15.948498	39.424982	-7.0255905
114	8	3	1.5785306	14.403723	39.479654	-7.4290633
115	8	4	-0.66341273	14.202063	40.746875	-8.1484288
116	8	4	-0.66341273	14.102376	38.203256	-8.0907547
117	8	1	0.53867169	13.333681	39.549527	-5.8344382
118	8	2	-0.26574309	13.520718	38.435757	-5.0557494
119	8	2	-0.26574309	13.62645	40.643849	-5.062623
120	8	2	-0.26574309	11.99429	39.61231	-6.1360049
121	9	1	0.53867169	58.919258	38.354204	12.988183
122	9	2	-0.26574303	58.083396	39.23949	12.362716
123	9	2	-0.26574303	59.662023	37.749436	12.005516
124	9	2	-0.26574303	58.13766	37.395041	13.573058
125	9	3	1.5785306	60.030947	39.249179	14.268352
126	9	4	-0.66341273	59.15648	39.924881	15.236756
127	9	4	-0.66341273	61.025572	38.286688	14.760292
128	9	5	-0.98629526	60.866246	40.378971	13.498749
129	9	3	1.5785306	61.363182	41.512713	14.528289
130	9	4	-0.66341273	61.909323	40.856066	15.726926
131	9	4	-0.66341273	62.332563	42.243361	13.690561
132	9	1	0.53867169	59.951282	42.753553	15.006373
133	9	2	-0.26574309	58.910437	42.700925	14.116446
134	9	2	-0.26574309	59.452972	42.534432	16.26465
135	9	2	-0.26574309	60.412235	44.041252	14.993838
136	10	1	0.53867169	27.14721	22.762024	51.785941
137	10	2	-0.26574303	26.865675	23.852673	51.002488
138	10	2	-0.26574303	28.236263	22.144325	51.222067
139	10	2	-0.26574303	26.091053	21.89652	51.656947
140	10	3	1.5785306	27.46197	23.246942	53.6268
141	10	4	-0.66341273	26.23199	23.884487	54.134407
142	10	4	-0.66341273	27.973595	22.046719	54.30512
143	10	5	-0.98629526	28.578382	24.398737	53.653588
144	10	3	1.5785306	29.322233	24.428594	55.073538
145	10	4	-0.66341273	28.296573	24.343908	56.129799
146	10	4	-0.66341273	30.380354	23.409898	54.98188
147	10	1	0.53867169	30.203111	26.13482	55.265632
148	10	2	-0.26574309	31.143796	26.342554	54.288802
149	10	2	-0.26574309	29.323707	27.186131	55.198774
150	10	2	-0.26574309	30.853808	26.23908	56.469493
151	11	1	0.53867169	55.608644	46.228156	5.6010818
152	11	2	-0.26574303	54.648552	45.271235	5.4145473
153	11	2	-0.26574303	55.045342	47.432246	5.2518725
154	11	2	-0.26574303	56.61634	45.985451	4.7044533
155	11	3	1.5785306	56.264949	46.26801	7.4075204
156	11	4	-0.66341273	56.697083	44.90314	7.7464646
157	11	4	-0.66341273	57.194204	47.410407	7.4824435
158	11	5	-0.98629526	55.033092	46.601453	8.3762586
159	11	3	1.5785306	55.568714	47.100701	9.8081279
160	11	4	-0.66341273	56.759896	46.323795	10.174451
161	11	4	-0.66341273	55.686097	48.563685	9.6530056
162	11	1	0.53867169	54.24365	46.763453	11.16123
163	11	2	-0.26574309	53.128023	47.540665	10.993303
164	11	2	-0.26574309	53.851075	45.449944	11.179149
165	11	2	-0.26574309	54.733868	47.05452	12.408204
166	12	1	0.53867169	38.507311	41.506696	52.716308
167	12	2	-0.26574303	38.973348	40.22141	52.871528
168	12	2	-0.26574303	37.56423	41.699963	53.695726
169	12	2	-0.26574303	37.849431	41.540303	51.51392
170	12	3	1.5785306	39.930878	42.808156	52.800035
171	12	4	-0.66341273	40.955772	42.371602	51.836667
172	12	4	-0.66341273	39.307756	44.134455	52.676654
173	12	5	-0.98629526	40.631595	42.685103	54.241071
174	12	3	1.5785306	41.412678	44.046597	54.590759
175	12	4	-0.66341273	42.145481	44.490843	53.394632
176	12	4	-0.66341273	40.412846	44.923768	55.219607
177	12	1	0.53867169	42.733631	43.648438	55.939112
178	12	2	-0.26574309	42.175798	43.148847	57.090769
179	12	2	-0.26574309	43.635225	42.708573	55.512371
180	12	2	-0.26574309	43.452191	44.760227	56.301165
181	13	1	0.53867169	17.752976	41.427569	20.978587
182	13	2	-0.26574303	16.8707	40.379148	20.952497
183	13	2	-0.26574303	18.990782	40.9129	20.692396
184	13	2	-0.26574303	17.784172	41.880202	22.271936
185	13	3	1.5785306	17.240207	42.811861	19.744873
186	13	4	-0.66341273	15.81581	43.105898	19.996716
187	13	4	-0.66341273	18.247778	43.877487	19.840939
188	13	5	-0.98629526	17.253354	42.201786	18.259319
189	13	3	1.5785306	17.484857	43.364463	17.177444
190	13	4	-0.66341273	16.629126	44.506125	17.5397
191	13	4	-0.66341273	18.944867	43.523979	17.059602
192	13	1	0.53867169	16.861529	42.755232	15.464616
193	13	2	-0.26574309	17.513888	41.632214	15.05128
194	13	2	-0.26574309	15.524585	42.469664	15.474012
195	13	2	-0.26574309	17.068806	43.70194	14.491202
196	14	1	0.53867169	48.626733	-5.7851702	29.365423
197	14	2	-0.26574303	48.265023	-5.3324449	28.125043
198	14	2	-0.26574303	49.904943	-5.3496546	29.600308
199	14	2	-0.26574303	48.673177	-7.1541935	29.30223
200	14	3	1.5785306	47.40293	-5.2015281	30.724607
201	14	4	-0.66341273	46.044197	-5.5543852	30.279243
202	14	4	-0.66341273	47.889767	-5.7371795	32.007272
203	14	5	-0.98629526	47.404437	-3.5973373	30.783403
204	14	3	1.5785306	46.924863	-3.0941048	32.227838
205	14	4	-0.66341273	45.760345	-3.8955748	32.647388
206	14	4	-0.66341273	48.137021	-3.0750638	33.060267
207	14	1	0.53867169	46.318936	-1.2775427	32.052047
208	14	2	-0.26574309	47.282071	-0.45837443	31.52014
209	14	2	-0.26574309	45.233183	-1.1824448	31.218445
210	14	2	-0.26574309	45.944543	-0.74067309	33.256288
211	15	1	0.53867169	57.525597	39.822712	48.277102
212	15	2	-0.26574303	56.497064	39.764929	49.184108
213	15	2	-0.26574303	58.614321	40.326791	48.93436
214	15	2	-0.26574303	57.178273	40.727749	47.310534
215	15	3	1.5785306	57.887588	38.094187	47.528067
216	15	4	-0.66341273	56.61973	37.577822	46.984863
217	15	4	-0.66341273	59.045167	38.243067	46.631012
218	15	5	-0.98629526	58.244534	37.094531	48.737712
219	15	3	1.5785306	59.163628	35.884209	48.208346
220	15	4	-0.66341273	58.547888	35.360632	46.977234
221	15	4	-0.66341273	60.532227	36.418626	48.162484
222	15	1	0.53867169	59.132042	34.476786	49.516749
223	15	2	-0.26574309	59.513354	34.924839	50.75685
224	15	2	-0.26574309	57.870517	33.956299	49.6491
225	15	2	-0.26574309	59.973168	33.451793	49.17264
226	16	1	0.53867169	42.722087	21.972215	53.837662
227	16	2	-0.26574303	43.01888	21.039643	54.788456
228	16	2	-0.26574303	43.886809	22.27524	53.184175
229	16	2	-0.26574303	42.313466	23.108809	54.486861
230	16	3	1.5785306	41.388168	21.347134	52.610526
231	16	4	-0.66341273	40.167189	21.062512	53.385119
232	16	4	-0.66341273	41.362395	22.317972	51.501575
233	16	5	-0.98629526	41.844983	19.928509	52.028069
234	16	3	1.5785306	41.11608	19.63306	50.629559
235	16	4	-0.66341273	39.734004	20.138683	50.676794
236	16	4	-0.66341273	42.035174	20.19948	49.625115
237	16	1	0.53867169	41.01757	17.732744	50.321374
238	16	2	-0.26574309	42.25215	17.146196	50.265541
239	16	2	-0.26574309	40.283575	17.093543	51.28305
240	16	2	-0.26574309	40.423436	17.455282	49.115372
241	17	1	0.53867169	37.459288	23.011818	75.274663
242	17	2	-0.26574303	36.678431	23.816154	76.065378
243	17	2	-0.26574303	37.864349	23.768828	74.206805
244	17	2	-0.26574303	36.643624	22.026656	74.78097
245	17	3	1.5785306	38.949168	22.292566	76.257138
246	17	4	-0.66341273	38.40596	21.656587	77.466574
247	17	4	-0.66341273	39.745834	21.469805	75.333467
248	17	5	-0.98629526	39.834876	23.522577	76.788449
249	17	3	1.5785306	41.351061	23.071043	77.016702
250	17	4	-0.66341273	41.352067	21.798766	77.758036
251	17	4	-0.66341273	41.997676	23.161044	75.698872
252	17	1	0.53867169	42.186971	24.385853	78.147602
253	17	2	-0.26574309	42.064586	25.655973	77.64195
254	17	2	-0.26574309	41.633258	24.422174	79.401293
255	17	2	-0.26574309	43.525324	24.150054	78.317375
256	18	1	0.53867169	37.081993	29.656515	6.1038375
257	18	2	-0.26574303	36.694674	29.724934	4.7897756
258	18	2	-0.26574303	37.018228	30.92864	6.6111118
259	18	2	-0.26574303	38.405354	29.297678	6.095739
260	18	3	1.5785306	36.011939	28.420546	7.1204787
261	18	4	-0.66341273	35.993135	27.148154	6.381017
262	18	4	-0.66341273	36.515412	28.434117	8.5045594
263	18	5	-0.98629526	34.493365	28.927464	7.1148354
264	18	3	1.5785306	33.685806	28.296599	8.3470935
265	18	4	-0.66341273	34.058423	26.874421	8.4797662
266	18	4	-0.66341273	33.930759	29.200764	9.4829333
267	18	1	0.53867169	31.803308	28.356767	7.9661119
268	18	2	-0.26574309	31.3605	29.635551	7.7474314
269	18	2	-0.26574309	31.485064	27.616682	6.8568856
270	18	2	-0.26574309	31.074789	27.850585	9.0132141
271	19	1	0.53867169	21.001015	9.6779954	40.865984
272	19	2	-0.26574303	21.78164	8.5531175	40.923872
273	19	2	-0.26574303	21.111763	10.189458	39.597697
274	19	2	-0.26574303	21.566436	10.596091	41.713042
275	19	3	1.5785306	19.165404	9.3188429	41.314435
276	19	4	-0.66341273	19.157159	8.6974835	42.646952
277	19	4	-0.66341273	18.423392	10.568728	41.072812
278	19	5	-0.98629526	18.607266	8.2118094	40.296979
279	19	3	1.5785306	17.004589	8.2168907	40.289135
280	19	4	-0.66341273	16.506102	8.369922	41.663413
281	19	4	-0.66341273	16.631563	9.2162591	39.270637
282	19	1	0.53867169	16.379187	6.5160334	39.634099
283	19	2	-0.26574309	16.797726	6.277892	38.347051
284	19	2	-0.26574309	16.801628	5.4644734	40.402884
285	19	2	-0.26574309	15.008231	6.4687103	39.598167
286	20	1	0.53867169	41.215067	61.874895	64.373522
287	20	2	-0.26574303	41.988802	60.797348	64.026752
288	20	2	-0.26574303	40.890198	62.55363	63.228211
289	20	2	-0.26574303	42.016978	62.738175	65.078073
290	20	3	1.5785306	39.6789	61.353827	65.439596
291	20	4	-0.66341273	40.155511	61.180239	66.820602
292	20	4	-0.66341273	38.595915	62.336178	65.266199
293	20	5	-0.98629526	39.125848	59.88112	65.08532
294	20	3	1.5785306	38.193276	59.910154	63.793912
295	20	4	-0.66341273	36.847756	60.297346	64.259415
296	20	4	-0.66341273	38.878832	60.73133	62.789392
297	20	1	0.53867169	38.074353	58.118935	63.088775
298	20	2	-0.26574309	39.30094	57.630816	62.710333
299	20	2	-0.26574309	37.566481	57.233524	64.004669
300	20	2	-0.26574309	37.264791	58.064241	61.983638
301	21	1	0.53867169	57.956862	59.128656	23.553369
302	21	2	-0.26574303	58.131089	60.089054	24.51143
303	21	2	-0.26574303	57.110615	59.652748	22.608767
304	21	2	-0.26574303	57.318101	58.071318	24.141207
305	21	3	1.5785306	59.632926	58.592887	22.793391
306	21	4	-0.66341273	60.051498	59.659495	21.869547
307	21	4	-0.66341273	60.509677	58.221955	23.915374
308	21	5	-0.98629526	59.389868	57.289119	21.887665
309	21	3	1.5785306	60.77847	56.51196	21.668262
310	21	4	-0.66341273	61.818051	57.500057	21.342747
311	21	4	-0.66341273	60.923877	55.668378	22.864676
312	21	1	0.53867169	60.600877	55.322466	20.168891
313	21	2	-0.26574309	59.679451	54.337893	20.414732
314	21	2	-0.26574309	60.186129	55.969262	19.036598
315	21	2	-0.26574309	61.781578	54.697495	19.874802
316	22	1	0.53867169	43.16576	33.177483	16.15311
317	22	2	-0.26574303	42.277846	33.36864	17.180272
318	22	2	-0.26574303	42.477098	32.597163	15.121268
319	22	2	-0.26574303	44.102502	32.27529	16.587863
320	22	3	1.5785306	43.999972	34.823101	15.618187
321	22	4	-0.66341273	44.569526	35.426123	16.835167
322	22	4	-0.66341273	44.891505	34.519193	14.482239
323	22	5	-0.98629526	42.869048	35.835783	15.116457
324	22	3	1.5785306	43.511567	37.015271	14.24015
325	22	4	-0.66341273	44.777799	37.441707	14.85937
326	22	4	-0.66341273	43.535323	36.492343	12.862363
327	22	1	0.53867169	42.327547	38.528912	14.27893
328	22	2	-0.26574309	41.080651	38.22403	13.801144
329	22	2	-0.26574309	42.165427	39.006002	15.553474
330	22	2	-0.26574309	42.817841	39.559331	13.518822
331	23	1	0.53867169	48.739996	16.624384	64.26352
332	23	2	-0.26574303	48.030782	17.78167	64.446621
333	23	2	-0.26574303	49.558082	16.809534	63.179455
334	23	2	-0.26574303	47.823377	15.658762	63.933258
335	23	3	1.5785306	49.724712	16.144956	65.841289
336	23	4	-0.66341273	48.767524	16.208575	66.958284
337	23	4	-0.66341273	50.423484	14.883641	65.537963
338	23	5	-0.98629526	50.792241	17.307185	66.158986
339	23	3	1.5785306	52.015681	16.694692	67.003627
340	23	4	-0.66341273	51.451359	15.855613	68.074474
341	23	4	-0.66341273	52.915177	16.13696	65.981836
342	23	1	0.53867169	52.971926	18.135571	67.843356
343	23	2	-0.26574309	53.422065	19.044561	66.921902
344	23	2	-0.26574309	52.19039	18.827184	68.72972
345	23	2	-0.26574309	54.070888	17.690805	68.531899
346	24	1	0.53867169	54.087729	57.362671	12.832772
347	24	2	-0.26574303	54.157395	57.781734	11.528931
348	24	2	-0.26574303	55.08739	56.450815	13.033602
349	24	2	-0.26574303	52.920432	56.67078	13.006574
350	24	3	1.5785306	54.182673	58.849244	14.051061
351	24	4	-0.66341273	52.847176	59.460988	14.120847
352	24	4	-0.66341273	54.742055	58.394651	15.334084
353	24	5	-0.98629526	55.064373	60.055075	13.447186
354	24	3	1.5785306	56.597276	59.880786	13.844459
355	24	4	-0.66341273	56.685138	60.376453	15.226147
356	24	4	-0.66341273	56.954036	58.500681	13.478568
357	24	1	0.53867169	57.624702	61.065741	12.735215
358	24	2	-0.26574309	57.500191	60.747457	11.405486
359	24	2	-0.26574309	57.217131	62.371411	12.85646
360	24	2	-0.26574309	58.958564	61.02963	13.034482
361	25	1	0.53867169	65.136247	55.759721	35.458705
362	25	2	-0.26574303	66.119628	55.026941	34.842336
363	25	2	-0.26574303	65.089202	55.364184	36.768849
364	25	2	-0.26574303	63.942881	55.396881	34.888005
365	25	3	1.5785306	65.446048	57.649522	35.297785
366	25	4	-0.66341273	65.427961	57.964911	33.862522
367	25	4	-0.66341273	64.531574	58.322015	36.23431
368	25	5	-0.98629526	66.94128	57.975035	35.754042
369	25	3	1.5785306	67.106214	59.546328	36.052566
370	25	4	-0.66341273	66.285787	60.329289	35.112915
371	25	4	-0.66341273	66.862273	59.671206	37.499352
372	25	1	0.53867169	68.934321	60.033569	35.727065
373	25	2	-0.26574309	69.806833	59.165349	36.326597
374	25	2	-0.26574309	69.225359	60.035658	34.388728
375	25	2	-0.26574309	69.212542	61.290226	36.196446
376	26	1	0.53867169	48.280973	13.359165	1.4321409
377	26	2	-0.26574303	49.023957	14.294931	0.75865395
378	26	2	-0.26574303	48.275123	13.720204	2.756145
379	26	2	-0.26574303	48.955784	12.167301	1.3492157
380	26	3	1.5785306	46.495008	13.206623	0.73114559
381	26	4	-0.66341273	46.601434	12.930696	-0.70984423
382	26	4	-0.66341273	45.773048	12.254118	1.5964721
383	26	5	-0.98629526	45.776091	14.638242	0.83051793
384	26	3	1.5785306	44.184747	14.471806	0.83076261
385	26	4	-0.66341273	43.802481	13.463279	-0.17361362
386	26	4	-0.66341273	43.824339	14.227827	2.236816
387	26	1	0.53867169	43.378415	16.137968	0.31245084
388	26	2	-0.26574309	43.747454	17.170289	1.1362857
389	26	2	-0.26574309	43.713989	16.508534	-0.96486576
390	26	2	-0.26574309	42.009988	16.067113	0.3584341
391	27	1	0.53867169	53.134608	14.865154	29.799178
392	27	2	-0.26574303	53.74126	16.07738	30.006139
393	27	2	-0.26574303	51.812792	15.104469	29.521585
394	27	2	-0.26574303	53.182416	14.187871	30.989783
395	27	3	1.5785306	53.980322	13.872192	28.38841
396	27	4	-0.66341273	55.431623	13.915058	28.639445
397	27	4	-0.66341273	53.260961	12.591286	28.287866
398	27	5	-0.98629526	53.785663	14.672103	27.008991
399	27	3	1.5785306	53.954568	13.671423	25.764022
400	27	4	-0.66341273	55.083003	12.767533	26.027865
401	27	4	-0.66341273	52.600126	13.141277	25.527124
402	27	1	0.53867169	54.435172	14.729184	24.229674
403	27	2	-0.26574309	53.505321	15.700915	23.975697
404	27	2	-0.26574309	55.631218	15.37698	24.403932
405	27	2	-0.26574309	54.544525	13.982724	23.087628
406	28	1	0.53867169	56.094804	6.1874902	40.566502
407	28	2	-0.26574303	55.974307	5.1362687	39.692852
408	28	2	-0.26574303	54.901795	6.8611497	40.552855
409	28	2	-0.26574303	57.04391	7.0283037	40.053215
410	28	3	1.5785306	56.554794	5.588361	42.330871
411	28	4	-0.66341273	57.77976	4.780466	42.210984
412	28	4	-0.66341273	56.52597	6.7592698	43.216515
413	28	5	-0.98629526	55.423369	4.555656	42.81867
414	28	3	1.5785306	55.45526	4.3945608	44.413843
415	28	4	-0.66341273	56.84988	4.152962	44.819198
416	28	4	-0.66341273	54.740143	5.5530059	44.976935
417	28	1	0.53867169	54.451022	2.821531	44.880047
418	28	2	-0.26574309	53.146725	2.9033315	44.469118
419	28	2	-0.26574309	54.979486	1.6931593	44.304304
420	28	2	-0.26574309	54.444952	2.6135102	46.234145
421	29	1	0.53867169	16.999254	35.338297	61.743622
422	29	2	-0.26574303	16.648327	35.698526	60.471783
423	29	2	-0.26574303	17.879959	34.302466	61.621928
424	29	2	-0.26574303	15.88165	34.847641	62.365289
425	29	3	1.5785306	17.779666	36.794031	62.724681
426	29	4	-0.66341273	16.721567	37.789335	62.962966
427	29	4	-0.66341273	18.527942	36.201079	63.845992
428	29	5	-0.98629526	18.830105	37.559967	61.777105
429	29	3	1.5785306	19.869841	38.396928	62.674747
430	29	4	-0.66341273	19.156131	38.986897	63.820214
431	29	4	-0.66341273	20.993881	37.468026	62.893157
432	29	1	0.53867169	20.53057	39.876487	61.645989
433	29	2	-0.26574309	21.142168	39.484067	60.48758
434	29	2	-0.26574309	19.521563	40.730653	61.293654
435	29	2	-0.26574309	21.43774	40.60914	62.360005
436	30	1	0.53867169	69.950771	19.050175	25.808725
437	30	2	-0.26574303	70.903068	18.611414	24.93181
438	30	2	-0.26574303	68.803277	19.271172	25.100019
439	30	2	-0.26574303	70.376081	20.273185	26.263895
440	30	3	1.5785306	69.755077	17.833585	27.297647
441	30	4	-0.66341273	71.113276	17.443763	27.715447
442	30	4	-0.66341273	68.96286	18.468801	28.366399
443	30	5	-0.98629526	69.120927	16.407585	26.88874
444	30	3	1.5785306	67.528567	16.422806	27.060609
445	30	4	-0.66341273	67.28507	16.202528	28.496089
446	30	4	-0.66341273	67.025838	17.639902	26.406724
447	30	1	0.53867169	66.77228	14.915909	26.138418
448	30	2	-0.26574309	67.020984	14.952244	24.794645
449	30	2	-0.26574309	67.265782	13.728839	26.61577
450	30	2	-0.26574309	65.406966	14.877973	26.287615
451	31	1	0.53867169	45.709624	28.609898	43.146625
452	31	2	-0.26574303	44.650073	27.855804	42.708888
453	31	2	-0.26574303	45.321221	29.92214	43.10473
454	31	2	-0.26574303	46.722879	28.450551	42.237134
455	31	3	1.5785306	46.263795	28.075922	44.907331
456	31	4	-0.66341273	46.500707	26.625187	44.858918
457	31	4	-0.66341273	47.364588	28.957562	45.328484
458	31	5	-0.98629526	45.034766	28.273864	45.923796
459	31	3	1.5785306	45.537639	28.246806	47.447777
460	31	4	-0.66341273	46.419802	27.083321	47.625723
461	31	4	-0.66341273	46.086612	29.579124	47.744179
462	31	1	0.53867169	44.014864	27.985525	48.589492
463	31	2	-0.26574309	43.10668	29.005449	48.473315
464	31	2	-0.26574309	43.35618	26.818109	48.293467
465	31	2	-0.26574309	44.388275	27.920721	49.907327
466	32	1	0.53867169	26.623588	24.122331	64.908862
467	32	2	-0.26574303	27.064257	23.402293	65.989647
468	32	2	-0.26574303	25.485291	23.503399	64.456649
469	32	2	-0.26574303	27.568603	24.001472	63.924232
470	32	3	1.5785306	26.289179	25.962436	65.358019
471	32	4	-0.66341273	27.477419	26.481197	66.056986
472	32	4	-0.66341273	25.820823	26.62925	64.133611
473	32	5	-0.98629526	25.108154	26.015685	66.449642
474	32	3	1.5785306	24.447536	27.482567	66.473298
475	32	4	-0.66341273	25.51667	28.48938	66.363959
476	32	4	-0.66341273	23.388355	27.423491	65.455189
477	32	1	0.53867169	23.599854	27.744782	68.174429
478	32	2	-0.26574309	22.663074	26.776028	68.426657
479	32	2	-0.26574309	24.509969	27.703311	69.197907
480	32	2	-0.26574309	22.97045	28.960433	68.239245
481	33	1	0.53867169	48.109245	52.949467	9.4399303
482	33	2	-0.26574303	48.972621	51.981077	9.8842961
483	33	2	-0.26574303	48.363695	54.076695	10.177701
484	33	2	-0.26574303	46.838617	52.5424	9.7485012
485	33	3	1.5785306	48.306289	53.276658	7.5539273
486	33	4	-0.66341273	48.10596	52.00069	6.8475461
487	33	4	-0.66341273	47.454543	54.426804	7.2051132
488	33	5	-0.98629526	49.832087	53.669753	7.2514707
489	33	3	1.5785306	49.952092	54.436326	5.8502531
490	33	4	-0.66341273	49.048104	53.806324	4.8716241
491	33	4	-0.66341273	49.797974	55.858274	6.1899883
492	33	1	0.53867169	51.750546	54.18829	5.2044463
493	33	2	-0.26574309	52.693157	54.637671	6.0965037
494	33	2	-0.26574309	52.042284	52.864976	4.9825269
495	33	2	-0.26574309	51.978598	54.84426	4.0249979
496	34	1	0.53867169	30.073781	9.5582753	45.537391
497	34	2	-0.26574303	29.940248	8.9582902	44.312143
498	34	2	-0.26574303	29.818132	8.5857546	46.473703
499	34	2	-0.26574303	29.09327	10.508091	45.644851
500	34	3	1.5785306	31.83012	10.296324	45.77919
501	34	4	-0.66341273	32.09995	11.175723	44.632287
502	34	4	-0.66341273	31.893122	10.795475	47.160807
503	34	5	-0.98629526	32.881913	9.0858966	45.649099
504	34	3	1.5785306	34.287183	9.5119476	46.309199
505	34	4	-0.66341273	34.571865	10.925093	46.020885
506	34	4	-0.66341273	34.164393	9.044165	47.701449
507	34	1	0.53867169	35.675781	8.4590453	45.491405
508	34	2	-0.26574309	35.436325	7.114504	45.641861
509	34	2	-0.26574309	35.781019	8.693186	44.146295
510	34	2	-0.26574309	36.902146	8.713156	46.050606
511	35	1	0.53867169	17.942363	69.226007	63.536921
512	35	2	-0.26574303	17.367975	69.720125	64.67751
513	35	2	-0.26574303	19.282219	69.080005	63.783426
514	35	2	-0.26574303	17.808403	70.183034	62.567935
515	35	3	1.5785306	17.133987	67.561665	63.021617
516	35	4	-0.66341273	15.702407	67.802038	62.778215
517	35	4	-0.66341273	17.94247	66.99091	61.929922
518	35	5	-0.98629526	17.130305	66.606545	64.312167
519	35	3	1.5785306	17.411301	65.092559	63.90583
520	35	4	-0.66341273	16.492789	64.728446	62.810583
521	35	4	-0.66341273	18.867658	65.007796	63.729677
522	35	1	0.53867169	16.969883	64.007907	65.411673
523	35	2	-0.26574309	17.739128	64.343133	66.49364
524	35	2	-0.26574309	15.657389	64.163322	65.762191
525	35	2	-0.26574309	17.166288	62.678237	65.170636
526	36	1	0.53867169	16.533953	30.971692	14.444284
527	36	2	-0.26574303	17.075806	31.561117	13.330314
528	36	2	-0.26574303	17.288172	31.376686	15.512061
529	36	2	-0.26574303	16.720729	29.618599	14.323
530	36	3	1.5785306	14.681704	31.427722	14.686395
531	36	4	-0.66341273	13.959826	30.96216	13.491293
532	36	4	-0.66341273	14.313612	30.954983	16.030875
533	36	5	-0.98629526	14.543538	33.029089	14.633617
534	36	3	1.5785306	13.214161	33.484898	15.416553
535	36	4	-0.66341273	12.125512	32.539783	15.124381
536	36	4	-0.66341273	13.66365	33.713994	16.79981
537	36	1	0.53867169	12.650647	35.187495	14.716312
538	36	2	-0.26574309	13.667399	36.106679	14.683452
539	36	2	-0.26574309	12.180225	35.085444	13.432561
540	36	2	-0.26574309	11.638396	35.729759	15.465243
541	37	1	0.53867169	69.433036	12.236805	44.808335
542	37	2	-0.26574303	70.212746	13.35139	44.632931
543	37	2	-0.26574303	70.184274	11.15875	44.421768
544	37	2	-0.26574303	68.389397	12.337765	43.921218
545	37	3	1.5785306	68.787742	12.068077	46.614313
546	37	4	-0.66341273	67.970057	13.262864	46.885891