Title

5500 atoms
5300 bonds
9700 angles
15300 dihedrals
1200 impropers

7 atom types
7 bond types
6 angle types
15 dihedral types
1 improper types
-2.564186156 37.43581384 xlo xhi
-2.304981798 37.6950182 ylo yhi
-0.9647282213 39.03527178 zlo zhi
0.0 0.0 0.0 xy xz yz

Masses

1	12.01078
2	1.007947
3	12.01078
4	32.0655
5	1.007947
6	1.007947
7	1.007947


Pair Coeffs

1	0.10884061	3.3795318
2	0.015779483	2.6445434
3	0.086879315	3.4806469
4	0.25	3.5635949
5	0.015611343	2.5725815
6	0.016409246	2.5832257
7	0.0157	1.0690785

Bond Coeffs

1 harmonic	215.30139056395	1.533627603844
2 harmonic	357.8191474159	1.094206460752
3 harmonic	452.0241811971	1.373209032276
4 harmonic	386.4399368291	1.08603610657
5 harmonic	239.36956775905	1.50959128588
6 harmonic	143.73520070135	1.836691225033
7 harmonic	294.408502027	1.349293295059


Angle Coeffs

1 harmonic	66.75631831595	109.9380527584
2 harmonic	36.776637850755	108.3543135269
3 harmonic	84.54765779845	120.1049996386
4 harmonic	32.92237734064	119.8544859917
5 harmonic	150.21456607155	100.2622716311
6 harmonic	21.680342327375	117.693379803


Dihedral Coeffs

1 fourier 1	0.3549667638131	3	0
2 fourier 1	0.2399307824079	2	180
3 fourier 1	0.9156101580834	1	180
4 fourier 1	0.0985377828486	3	0
5 fourier 1	0.2279946533057	3	0
6 fourier 1	-0.4476383757771	2	0
7 fourier 1	-0.1380115056627	3	0
8 fourier 1	0.5548313330339	2	180
9 fourier 1	0.2774265594871	3	180
10 fourier 1	0.1636595455502	1	0
11 fourier 1	0.143904881748	3	0
12 fourier 1	0.1898990064757	3	0
13 fourier 1	4.626306460904	2	180
14 fourier 1	0.4059773313175	2	180
15 fourier 1	0.4191159286634	3	0


Improper Coeffs

1 1.743596855104667	-1	2


Atoms

1	1	1	-0.0764	11.692678	17.546393	14.032465
2	1	1	-0.0764	13.134282	17.977914	14.380034
3	1	1	-0.0764	14.154487	16.900438	13.958868
4	1	1	-0.0764	13.819751	15.533669	14.593042
5	1	1	-0.0764	12.37831	15.097128	14.254422
6	1	1	-0.0764	11.353142	16.17836	14.667834
7	1	2	0.0382	10.987302	18.303893	14.387327
8	1	2	0.0382	11.582174	17.48219	12.945745
9	1	2	0.0382	13.368838	18.923628	13.882146
10	1	2	0.0382	13.213937	18.151628	15.457417
11	1	2	0.0382	15.161252	17.209029	14.25633
12	1	2	0.0382	14.149597	16.80604	12.868754
13	1	2	0.0382	13.932422	15.597905	15.679535
14	1	2	0.0382	14.52668	14.779837	14.233484
15	1	2	0.0382	12.147555	14.156823	14.764198
16	1	2	0.0382	12.300582	14.909625	13.179208
17	1	2	0.0382	11.344638	16.273185	15.757892
18	1	2	0.0382	10.348462	15.869853	14.363315
19	2	1	-0.0764	13.868928	9.0026426	11.661663
20	2	1	-0.0764	13.155791	9.1775656	13.018998
21	2	1	-0.0764	13.338312	10.617251	13.547056
22	2	1	-0.0764	14.837528	10.97085	13.666742
23	2	1	-0.0764	15.563351	10.781136	12.32087
24	2	1	-0.0764	15.368841	9.349196	11.786053
25	2	2	0.0382	13.75352	7.972244	11.312026
26	2	2	0.0382	13.400379	9.6535623	10.917313
27	2	2	0.0382	12.090474	8.9519745	12.911786
28	2	2	0.0382	13.564465	8.4661543	13.742996
29	2	2	0.0382	12.856427	10.715024	14.524555
30	2	2	0.0382	12.846733	11.322581	12.870184
31	2	2	0.0382	15.303209	10.325277	14.417516
32	2	2	0.0382	14.949527	12.006156	14.002727
33	2	2	0.0382	16.630719	10.987076	12.445793
34	2	2	0.0382	15.171629	11.497145	11.592056
35	2	2	0.0382	15.848031	8.637377	12.465001
36	2	2	0.0382	15.85977	9.2536765	10.81284
37	3	1	-0.0764	27.74914	29.42553	32.907076
38	3	1	-0.0764	28.993254	28.525352	32.677267
39	3	1	-0.0764	28.622756	27.220466	31.940465
40	3	1	-0.0764	27.591887	26.375709	32.741487
41	3	1	-0.0764	26.707666	27.230494	33.683717
42	3	1	-0.0764	26.434927	28.618968	33.075333
43	3	2	0.0382	27.918932	30.043168	33.794198
44	3	2	0.0382	27.631269	30.112114	32.063282
45	3	2	0.0382	29.746211	29.079022	32.108238
46	3	2	0.0382	29.442673	28.272562	33.642359
47	3	2	0.0382	29.522069	26.626861	31.750319
48	3	2	0.0382	28.201118	27.473238	30.962913
49	3	2	0.0382	28.111229	25.622134	33.341229
50	3	2	0.0382	26.958117	25.830367	32.035632
51	3	2	0.0382	27.211871	27.354548	34.646878
52	3	2	0.0382	25.765762	26.707585	33.875198
53	3	2	0.0382	25.737674	29.178598	33.706157
54	3	2	0.0382	25.953984	28.49411	32.100451
55	4	1	-0.0764	34.849796	3.7594241	31.101913
56	4	1	-0.0764	35.698333	3.4527636	29.84834
57	4	1	-0.0764	36.600792	2.2183749	30.072227
58	4	1	-0.0764	37.49217	2.4000117	31.320412
59	4	1	-0.0764	36.63944	2.7009061	32.57273
60	4	1	-0.0764	35.747104	3.9415187	32.347355
61	4	2	0.0382	34.263501	4.6677926	30.933363
62	4	2	0.0382	34.143651	2.9417145	31.275125
63	4	2	0.0382	35.039144	3.2785484	28.992531
64	4	2	0.0382	36.320872	4.3202716	29.609244
65	4	2	0.0382	37.231998	2.0569132	29.193139
66	4	2	0.0382	35.977352	1.3275181	30.194657
67	4	2	0.0382	38.195038	3.2214171	31.151402
68	4	2	0.0382	38.085241	1.495509	31.486039
69	4	2	0.0382	37.294474	2.8687572	33.432989
70	4	2	0.0382	36.012111	1.8349649	32.804887
71	4	2	0.0382	36.378379	4.8256251	32.21643
72	4	2	0.0382	35.12732	4.1148111	33.232298
73	5	1	-0.0764	31.063757	34.58143	26.681268
74	5	1	-0.0764	31.118698	33.040693	26.663804
75	5	1	-0.0764	32.390401	32.537799	25.947127
76	5	1	-0.0764	32.491944	33.107004	24.516571
77	5	1	-0.0764	32.411811	34.649804	24.518733
78	5	1	-0.0764	31.142423	35.151169	25.247195
79	5	2	0.0382	30.137181	34.909096	27.16228
80	5	2	0.0382	31.892426	34.972343	27.279418
81	5	2	0.0382	31.093402	32.657311	27.688334
82	5	2	0.0382	30.23217	32.653565	26.152451
83	5	2	0.0382	32.381718	31.444359	25.907078
84	5	2	0.0382	33.273282	32.838283	26.519415
85	5	2	0.0382	31.680806	32.70051	23.904934
86	5	2	0.0382	33.432357	32.785788	24.058604
87	5	2	0.0382	32.411842	35.014496	23.487096
88	5	2	0.0382	33.300176	35.061073	25.007567
89	5	2	0.0382	30.254033	34.848237	24.684799
90	5	2	0.0382	31.144288	36.244743	25.284426
91	6	1	-0.0764	16.413872	29.110451	9.9671602
92	6	1	-0.0764	15.409174	27.955756	10.161229
93	6	1	-0.0764	15.386634	27.025149	8.9300358
94	6	1	-0.0764	15.092248	27.816901	7.6343018
95	6	1	-0.0764	16.104617	28.966649	7.4444294
96	6	1	-0.0764	16.123223	29.90078	8.6708415
97	6	2	0.0382	16.376845	29.778442	10.833014
98	6	2	0.0382	17.428149	28.702853	9.9184221
99	6	2	0.0382	15.676129	27.381225	11.053383
100	6	2	0.0382	14.407547	28.364286	10.32594
101	6	2	0.0382	14.628168	26.249597	9.0733439
102	6	2	0.0382	16.352539	26.519682	8.8361263
103	6	2	0.0382	14.077917	28.225102	7.6767349
104	6	2	0.0382	15.137982	27.144718	6.772114
105	6	2	0.0382	15.851208	29.539032	6.5469646
106	6	2	0.0382	17.104633	28.550894	7.2882462
107	6	2	0.0382	15.156876	30.407033	8.7555218
108	6	2	0.0382	16.8855	30.673194	8.5308319
109	7	1	-0.0764	30.077751	12.494494	27.45862
110	7	1	-0.0764	30.286005	13.625755	28.487709
111	7	1	-0.0764	29.448555	13.374299	29.75981
112	7	1	-0.0764	27.951705	13.221624	29.411449
113	7	1	-0.0764	27.741849	12.0744	28.401244
114	7	1	-0.0764	28.580003	12.305044	27.126923
115	7	2	0.0382	30.632105	12.725056	26.543839
116	7	2	0.0382	30.481086	11.559285	27.85861
117	7	2	0.0382	31.34635	13.699807	28.747466
118	7	2	0.0382	29.998007	14.583192	28.043125
119	7	2	0.0382	29.586213	14.2011	30.463176
120	7	2	0.0382	29.802704	12.467067	30.258601
121	7	2	0.0382	27.578022	14.157106	28.984222
122	7	2	0.0382	27.374814	13.02583	30.320375
123	7	2	0.0382	26.682906	12.00475	28.134634
124	7	2	0.0382	28.029683	11.123903	28.860586
125	7	2	0.0382	28.20667	13.190482	26.60356
126	7	2	0.0382	28.456867	11.455076	26.448932
127	8	1	-0.0764	10.294251	33.685143	14.529886
128	8	1	-0.0764	9.4212818	32.542078	13.970288
129	8	1	-0.0764	9.6552783	31.230087	14.74892
130	8	1	-0.0764	11.151398	30.840945	14.769725
131	8	1	-0.0764	12.047532	31.998429	15.272496
132	8	1	-0.0764	11.787949	33.307023	14.493241
133	8	2	0.0382	10.1296	34.593687	13.942761
134	8	2	0.0382	9.9977839	33.905048	15.559952
135	8	2	0.0382	8.3657986	32.825053	14.026597
136	8	2	0.0382	9.6586275	32.385087	12.913735
137	8	2	0.0382	9.0745026	30.422225	14.293565
138	8	2	0.0382	9.2919928	31.348259	15.774269
139	8	2	0.0382	11.466364	30.550241	13.762968
140	8	2	0.0382	11.288632	29.961379	15.405974
141	8	2	0.0382	13.101356	31.720867	15.174009
142	8	2	0.0382	11.858122	32.164867	16.337249
143	8	2	0.0382	12.106485	33.187475	13.453275
144	8	2	0.0382	12.384757	34.117029	14.92336
145	9	1	-0.0764	11.316558	5.3166366	39.169214
146	9	1	-0.0764	11.069654	6.1205125	40.464015
147	9	1	-0.0764	12.368103	6.8040842	40.948415
148	9	1	-0.0764	13.501196	5.7728082	41.145329
149	9	1	-0.0764	13.746895	4.9633083	39.852183
150	9	1	-0.0764	12.447922	4.2829901	39.364548
151	9	2	0.0382	10.39525	4.8052061	38.8744
152	9	2	0.0382	11.58366	5.9989393	38.356557
153	9	2	0.0382	10.296226	6.8740183	40.287032
154	9	2	0.0382	10.696096	5.4500085	41.243868
155	9	2	0.0382	12.184554	7.3293519	41.890588
156	9	2	0.0382	12.679325	7.5537729	40.214663
157	9	2	0.0382	13.23529	5.0909668	41.958766
158	9	2	0.0382	14.421887	6.2856674	41.439595
159	9	2	0.0382	14.514916	4.2045945	40.030465
160	9	2	0.0382	14.127159	5.6285	39.071026
161	9	2	0.0382	12.133555	3.5315135	40.095129
162	9	2	0.0382	12.638346	3.7611204	38.421848
163	10	1	-0.0764	30.162721	38.538003	38.33467
164	10	1	-0.0764	29.013755	39.275179	37.610741
165	10	1	-0.0764	27.713389	39.248641	38.447168
166	10	1	-0.0764	27.315135	37.803714	38.823259
167	10	1	-0.0764	28.470366	37.075098	39.547398
168	10	1	-0.0764	29.759433	37.09161	38.695507
169	10	2	0.0382	31.051004	38.524191	37.695885
170	10	2	0.0382	30.426207	39.081166	39.247274
171	10	2	0.0382	29.307752	40.311599	37.419198
172	10	2	0.0382	28.833199	38.805001	36.63934
173	10	2	0.0382	26.901975	39.716425	37.881415
174	10	2	0.0382	27.855649	39.835761	39.359498
175	10	2	0.0382	27.045529	37.253213	37.916865
176	10	2	0.0382	26.429331	37.820711	39.465406
177	10	2	0.0382	28.180659	36.041601	39.76011
178	10	2	0.0382	28.662367	37.561896	40.508366
179	10	2	0.0382	29.601867	36.516266	37.778203
180	10	2	0.0382	30.572381	36.609452	39.246802
181	11	1	-0.0764	21.297517	11.694964	5.4276025
182	11	1	-0.0764	20.086913	11.858956	6.3765538
183	11	1	-0.0764	18.76339	11.494347	5.6637228
184	11	1	-0.0764	18.578856	12.324758	4.3747106
185	11	1	-0.0764	19.787886	12.153628	3.430278
186	11	1	-0.0764	21.109161	12.523599	4.1400114
187	11	2	0.0382	22.213254	12.009007	5.937596
188	11	2	0.0382	21.416323	10.639457	5.1647806
189	11	2	0.0382	20.219767	11.222299	7.2565025
190	11	2	0.0382	20.03747	12.893784	6.7286611
191	11	2	0.0382	17.920157	11.667494	6.3391978
192	11	2	0.0382	18.764209	10.429609	5.4114872
193	11	2	0.0382	18.464143	13.381799	4.633145
194	11	2	0.0382	17.663283	12.014604	3.8620502
195	11	2	0.0382	19.656394	12.784607	2.5460523
196	11	2	0.0382	19.835268	11.116436	3.0849147
197	11	2	0.0382	21.106591	13.588387	4.3920147
198	11	2	0.0382	21.951826	12.355397	3.4625807
199	12	1	-0.0764	38.810155	4.5657194	18.469751
200	12	1	-0.0764	38.761115	3.248769	17.661959
201	12	1	-0.0764	37.831607	2.211632	18.332249
202	12	1	-0.0764	38.234267	1.9577764	19.801265
203	12	1	-0.0764	38.27971	3.2758814	20.605288
204	12	1	-0.0764	39.220417	4.3024242	19.936411
205	12	2	0.0382	39.521775	5.2555668	18.006071
206	12	2	0.0382	37.829123	5.0496572	18.443915
207	12	2	0.0382	38.412018	3.4531993	16.645283
208	12	2	0.0382	39.770279	2.8335187	17.581648
209	12	2	0.0382	37.863727	1.271587	17.773166
210	12	2	0.0382	36.799138	2.5723732	18.298295
211	12	2	0.0382	39.21675	1.4771049	19.832489
212	12	2	0.0382	37.518857	1.270691	20.263209
213	12	2	0.0382	38.622329	3.073999	21.624672
214	12	2	0.0382	37.271659	3.694995	20.679247
215	12	2	0.0382	40.247908	3.9272797	19.964993
216	12	2	0.0382	39.202826	5.239951	20.500345
217	13	1	-0.0764	-0.18104006	37.448151	23.848381
218	13	1	-0.0764	-0.17084196	38.956077	23.519437
219	13	1	-0.0764	-1.3449125	39.324944	22.584395
220	13	1	-0.0764	-1.319042	38.476212	21.292567
221	13	1	-0.0764	-1.3030021	36.965282	21.616094
222	13	1	-0.0764	-0.12815294	36.608469	22.552881
223	13	2	0.0382	0.67466356	37.205279	24.485617
224	13	2	0.0382	-1.0866725	37.200243	24.410222
225	13	2	0.0382	-0.23558918	39.536841	24.444537
226	13	2	0.0382	0.77600919	39.218676	23.037972
227	13	2	0.0382	-1.2899314	40.387335	22.328289
228	13	2	0.0382	-2.2932428	39.164245	23.106062
229	13	2	0.0382	-0.43272968	38.734064	20.704985
230	13	2	0.0382	-2.1933894	38.711789	20.67831
231	13	2	0.0382	-1.2235171	36.390171	20.688612
232	13	2	0.0382	-2.2470652	36.686261	22.09378
233	13	2	0.0382	0.81922181	36.792545	22.037241
234	13	2	0.0382	-0.16021179	35.542274	22.796776
235	14	1	-0.0764	36.545012	4.6896684	7.9035711
236	14	1	-0.0764	37.125404	3.2661003	7.7423334
237	14	1	-0.0764	36.105752	2.1902852	8.1826013
238	14	1	-0.0764	35.619087	2.4396211	9.6264255
239	14	1	-0.0764	35.026636	3.8586959	9.7730845
240	14	1	-0.0764	36.053836	4.9322176	9.3493295
241	14	2	0.0382	37.308185	5.4296416	7.6441479
242	14	2	0.0382	35.711367	4.8253137	7.2079229
243	14	2	0.0382	37.410922	3.1000289	6.6991705
244	14	2	0.0382	38.034241	3.1738421	8.3446562
245	14	2	0.0382	36.563101	1.1985854	8.1143731
246	14	2	0.0382	35.246522	2.1994965	7.5051576
247	14	2	0.0382	36.455901	2.3183326	10.320925
248	14	2	0.0382	34.864233	1.6932751	9.891848
249	14	2	0.0382	34.721422	4.0264073	10.810392
250	14	2	0.0382	34.132168	3.9463609	9.1489577
251	14	2	0.0382	36.907475	4.911198	10.033548
252	14	2	0.0382	35.602219	5.9261066	9.4236022
253	15	1	-0.0764	21.918118	22.291162	29.728763
254	15	1	-0.0764	21.973472	21.806037	28.260777
255	15	1	-0.0764	23.426435	21.506517	27.834272
256	15	1	-0.0764	24.327776	22.742512	28.047254
257	15	1	-0.0764	24.275119	23.220408	29.515009
258	15	1	-0.0764	22.829127	23.517494	29.957111
259	15	2	0.0382	20.888548	22.543993	29.999588
260	15	2	0.0382	22.237728	21.478345	30.387902
261	15	2	0.0382	21.360261	20.907423	28.143466
262	15	2	0.0382	21.55354	22.572303	27.602155
263	15	2	0.0382	23.448045	21.210825	26.780996
264	15	2	0.0382	23.81418	20.66643	28.418396
265	15	2	0.0382	24.002545	23.550475	27.384899
266	15	2	0.0382	25.359588	22.495213	27.77988
267	15	2	0.0382	24.892764	24.115064	29.63906
268	15	2	0.0382	24.69389	22.443798	30.162137
269	15	2	0.0382	22.44478	24.373903	29.394867
270	15	2	0.0382	22.815518	23.794513	31.015584
271	16	1	-0.0764	5.9261805	9.8554981	7.1614736
272	16	1	-0.0764	5.2044249	11.111132	7.6987362
273	16	1	-0.0764	5.3525299	12.293515	6.7173332
274	16	1	-0.0764	6.8393296	12.592191	6.4306623
275	16	1	-0.0764	7.5617337	11.340671	5.8889228
276	16	1	-0.0764	7.4115515	10.153697	6.866172
277	16	2	0.0382	5.8537674	9.0442061	7.8921223
278	16	2	0.0382	5.4333824	9.5136452	6.2462795
279	16	2	0.0382	4.143475	10.891265	7.8514844
280	16	2	0.0382	5.6252205	11.387142	8.6703551
281	16	2	0.0382	4.8694789	13.182249	7.1345878
282	16	2	0.0382	4.84294	12.055604	5.7787126
283	16	2	0.0382	7.3296154	12.921268	7.3518664
284	16	2	0.0382	6.9174963	13.408043	5.7057047
285	16	2	0.0382	8.6225235	11.562662	5.7381326
286	16	2	0.0382	7.142297	11.07074	4.9150124
287	16	2	0.0382	7.9292864	10.386794	7.8015375
288	16	2	0.0382	7.8845	9.2630535	6.4414883
289	17	1	-0.0764	25.752697	34.6843	25.927098
290	17	1	-0.0764	27.233109	35.098877	26.062353
291	17	1	-0.0764	27.409122	36.229253	27.09734
292	17	1	-0.0764	26.4979	37.434614	26.782465
293	17	1	-0.0764	25.022912	37.001848	26.700194
294	17	1	-0.0764	24.836607	35.895064	25.643713
295	17	2	0.0382	25.646682	33.954849	25.118432
296	17	2	0.0382	25.435989	34.192173	26.851637
297	17	2	0.0382	27.831757	34.232857	26.360536
298	17	2	0.0382	27.611008	35.428753	25.08991
299	17	2	0.0382	28.453119	36.55658	27.111959
300	17	2	0.0382	27.170391	35.843482	28.093069
301	17	2	0.0382	26.80023	37.884786	25.832078
302	17	2	0.0382	26.612792	38.197658	27.558255
303	17	2	0.0382	24.399662	37.865057	26.447775
304	17	2	0.0382	24.692152	36.635368	27.676706
305	17	2	0.0382	25.063767	36.291788	24.649582
306	17	2	0.0382	23.790438	35.574522	25.635257
307	18	1	-0.0764	25.694528	14.322848	35.415926
308	18	1	-0.0764	25.088015	14.702191	34.046142
309	18	1	-0.0764	26.009786	14.264218	32.887928
310	18	1	-0.0764	27.428231	14.854848	33.054492
311	18	1	-0.0764	28.036742	14.478737	34.425547
312	18	1	-0.0764	27.112739	14.910579	35.58275
313	18	2	0.0382	25.048275	14.691969	36.218047
314	18	2	0.0382	25.739846	13.233316	35.506227
315	18	2	0.0382	24.106987	14.230927	33.933077
316	18	2	0.0382	24.934778	15.784687	34.001234
317	18	2	0.0382	25.581574	14.588257	31.934555
318	18	2	0.0382	26.066988	13.171911	32.85821
319	18	2	0.0382	27.381873	15.944052	32.960789
320	18	2	0.0382	28.075926	14.487323	32.25281
321	18	2	0.0382	29.016495	14.952556	34.538987
322	18	2	0.0382	28.192062	13.396688	34.473765
323	18	2	0.0382	27.051585	16.002778	35.60802
324	18	2	0.0382	27.538445	14.586151	36.537113
325	19	1	-0.0764	17.010036	3.4737134	2.037573
326	19	1	-0.0764	16.266946	2.1648853	1.6819473
327	19	1	-0.0764	14.963402	2.0213242	2.5005528
328	19	1	-0.0764	15.24395	2.1146484	4.0174812
329	19	1	-0.0764	15.985564	3.4248117	4.3680933
330	19	1	-0.0764	17.292666	3.5558325	3.5537413
331	19	2	0.0382	17.952161	3.5255462	1.4834917
332	19	2	0.0382	16.405752	4.3333852	1.7324539
333	19	2	0.0382	16.034698	2.1501577	0.61277196
334	19	2	0.0382	16.918532	1.3090187	1.8825026
335	19	2	0.0382	14.488554	1.0624873	2.2715445
336	19	2	0.0382	14.260664	2.8083307	2.2106035
337	19	2	0.0382	15.849533	1.2582447	4.3291464
338	19	2	0.0382	14.301159	2.0642316	4.5705605
339	19	2	0.0382	16.2137	3.4435824	5.4380906
340	19	2	0.0382	15.336088	4.2799798	4.157941
341	19	2	0.0382	17.982923	2.7566427	3.8403344
342	19	2	0.0382	17.782351	4.5063415	3.7861806
343	20	1	-0.0764	31.327031	21.637895	14.237831
344	20	1	-0.0764	31.733356	22.755449	15.224197
345	20	1	-0.0764	33.186615	22.565749	15.70547
346	20	1	-0.0764	33.377771	21.170964	16.344457
347	20	1	-0.0764	32.971244	20.050554	15.360682
348	20	1	-0.0764	31.518819	20.243289	14.8742
349	20	2	0.0382	30.281343	21.766498	13.942391
350	20	2	0.0382	31.933074	21.713161	13.329898
351	20	2	0.0382	31.626837	23.732419	14.74308
352	20	2	0.0382	31.06276	22.739687	16.088685
353	20	2	0.0382	33.443072	23.345504	16.429005
354	20	2	0.0382	33.86652	22.678237	14.855555
355	20	2	0.0382	32.770238	21.097982	17.251577
356	20	2	0.0382	34.421849	21.039777	16.644412
357	20	2	0.0382	33.073611	19.076014	15.847592
358	20	2	0.0382	33.645136	20.056252	14.498633
359	20	2	0.0382	30.832875	20.129414	15.719066
360	20	2	0.0382	31.265724	19.467173	14.145594
361	21	1	-0.0764	28.394551	20.940883	36.609862
362	21	1	-0.0764	27.879448	20.992014	38.065672
363	21	1	-0.0764	27.626092	19.569317	38.610277
364	21	1	-0.0764	26.642058	18.799134	37.703578
365	21	1	-0.0764	27.145553	18.757527	36.244576
366	21	1	-0.0764	27.407098	20.178642	35.704896
367	21	2	0.0382	28.53364	21.956987	36.228449
368	21	2	0.0382	29.368474	20.442858	36.582801
369	21	2	0.0382	28.608639	21.504955	38.700066
370	21	2	0.0382	26.951149	21.56996	38.104849
371	21	2	0.0382	27.224264	19.628217	39.626324
372	21	2	0.0382	28.573956	19.02529	38.663945
373	21	2	0.0382	25.663447	19.287698	37.733762
374	21	2	0.0382	26.510146	17.780172	38.079884
375	21	2	0.0382	26.404343	18.258067	35.613358
376	21	2	0.0382	28.069186	18.172888	36.195729
377	21	2	0.0382	26.462908	20.729375	35.655031
378	21	2	0.0382	27.808673	20.117691	34.688869
379	22	1	-0.0764	14.66827	21.212354	21.923101
380	22	1	-0.0764	13.450875	22.156987	22.005017
381	22	1	-0.0764	12.339211	21.721554	21.011431
382	22	1	-0.0764	12.374161	20.202501	20.692422
383	22	1	-0.0764	12.831088	19.38611	21.914265
384	22	1	-0.0764	14.275193	19.768301	22.341466
385	22	2	0.0382	15.053781	21.20775	20.899062
386	22	2	0.0382	15.477409	21.576335	22.563481
387	22	2	0.0382	13.055345	22.141953	23.025124
388	22	2	0.0382	13.754914	23.187325	21.797032
389	22	2	0.0382	12.438853	22.280746	20.076199
390	22	2	0.0382	11.363573	21.985147	21.430881
391	22	2	0.0382	13.058941	20.011799	19.860561
392	22	2	0.0382	11.38222	19.870646	20.371182
393	22	2	0.0382	12.780563	18.315812	21.69245
394	22	2	0.0382	12.14087	19.576311	22.741735
395	22	2	0.0382	14.985369	19.063684	21.898241
396	22	2	0.0382	14.363636	19.66267	23.426967
397	23	1	-0.0764	29.140301	1.0782123	25.391462
398	23	1	-0.0764	28.696916	0.26180483	26.622319
399	23	1	-0.0764	29.396992	0.77843271	27.895019
400	23	1	-0.0764	30.934343	0.74900381	27.742777
401	23	1	-0.0764	31.384242	1.5413615	26.497295
402	23	1	-0.0764	30.676527	1.0284067	25.224674
403	23	2	0.0382	28.652239	0.69078058	24.492033
404	23	2	0.0382	28.815129	2.1162532	25.509872
405	23	2	0.0382	27.612131	0.33774953	26.74382
406	23	2	0.0382	28.940339	-0.79431459	26.471822
407	23	2	0.0382	29.099495	0.17117519	28.755252
408	23	2	0.0382	29.064829	1.8018338	28.094006
409	23	2	0.0382	31.272461	-0.2882148	27.658234
410	23	2	0.0382	31.40132	1.1739951	28.636425
411	23	2	0.0382	32.468731	1.4586093	26.377609
412	23	2	0.0382	31.148653	2.6003486	26.639857
413	23	2	0.0382	30.992634	-0.00028736404	25.026803
414	23	2	0.0382	30.974662	1.6327371	24.36259
415	24	1	-0.0764	17.557374	2.1194063	21.743166
416	24	1	-0.0764	17.523918	0.65995976	21.239054
417	24	1	-0.0764	18.023913	-0.31061733	22.331998
418	24	1	-0.0764	19.442585	0.076182368	22.805858
419	24	1	-0.0764	19.489299	1.5406954	23.297408
420	24	1	-0.0764	18.972321	2.5150567	22.215905
421	24	2	0.0382	17.228279	2.7951604	20.947974
422	24	2	0.0382	16.855301	2.2328417	22.57473
423	24	2	0.0382	16.504253	0.39282747	20.94543
424	24	2	0.0382	18.15465	0.56579407	20.349896
425	24	2	0.0382	18.03135	-1.3334967	21.943471
426	24	2	0.0382	17.336277	-0.29019626	23.1829
427	24	2	0.0382	20.150673	-0.055010282	21.982036
428	24	2	0.0382	19.759581	-0.59435371	23.610332
429	24	2	0.0382	20.515752	1.8039139	23.570166
430	24	2	0.0382	18.876289	1.6415679	24.198143
431	24	2	0.0382	19.656816	2.5089574	21.362259
432	24	2	0.0382	18.957658	3.5345241	22.613099
433	25	1	-0.0764	15.249479	9.1188538	31.500597
434	25	1	-0.0764	16.489948	8.2740259	31.143289
435	25	1	-0.0764	16.273389	7.4865657	29.832273
436	25	1	-0.0764	15.013394	6.5990651	29.925816
437	25	1	-0.0764	13.767303	7.4421579	30.283225
438	25	1	-0.0764	13.983101	8.2380319	31.590457
439	25	2	0.0382	15.418053	9.6218169	32.457623
440	25	2	0.0382	15.102468	9.894101	30.742526
441	25	2	0.0382	17.365551	8.9234263	31.049023
442	25	2	0.0382	16.693517	7.5724834	31.957953
443	25	2	0.0382	17.149177	6.8634462	29.627311
444	25	2	0.0382	16.166563	8.1855899	28.997259
445	25	2	0.0382	15.165073	5.8288765	30.688114
446	25	2	0.0382	14.8526	6.0861045	28.972764
447	25	2	0.0382	12.898673	6.7853785	30.390043
448	25	2	0.0382	13.551666	8.1374842	29.466333
449	25	2	0.0382	14.080905	7.5425321	32.429509
450	25	2	0.0382	13.109412	8.8661867	31.788912
451	26	1	-0.0764	37.305565	7.9068017	20.745428
452	26	1	-0.0764	36.346776	8.2459694	19.583849
453	26	1	-0.0764	35.059009	8.9164621	20.109394
454	26	1	-0.0764	34.360392	8.0285257	21.160789
455	26	1	-0.0764	35.319457	7.6658231	22.318442
456	26	1	-0.0764	36.611335	7.0032257	21.788485
457	26	2	0.0382	38.196206	7.4064785	20.353353
458	26	2	0.0382	37.637367	8.8319933	21.226285
459	26	2	0.0382	36.848121	8.9158535	18.878733
460	26	2	0.0382	36.090941	7.3319745	19.039372
461	26	2	0.0382	34.376733	9.1120911	19.276615
462	26	2	0.0382	35.310361	9.8822337	20.558167
463	26	2	0.0382	34.005969	7.1103591	20.682638
464	26	2	0.0382	33.479185	8.545959	21.551962
465	26	2	0.0382	34.815834	6.9906402	23.016858
466	26	2	0.0382	35.581479	8.5722506	22.872541
467	26	2	0.0382	36.370583	6.0386533	21.331401
468	26	2	0.0382	37.29382	6.8068814	22.620924
469	27	1	-0.0764	9.8473001	6.9162548	26.82816
470	27	1	-0.0764	10.937327	5.915274	26.384931
471	27	1	-0.0764	12.331997	6.3601577	26.880085
472	27	1	-0.0764	12.662649	7.7958918	26.412194
473	27	1	-0.0764	11.569915	8.7917948	26.857541
474	27	1	-0.0764	10.180527	8.3477604	26.354425
475	27	2	0.0382	8.8772601	6.6114354	26.423941
476	27	2	0.0382	9.7644871	6.9031256	27.919152
477	27	2	0.0382	10.706472	4.9207583	26.778548
478	27	2	0.0382	10.9428	5.8376545	25.293493
479	27	2	0.0382	13.09518	5.6672299	26.513078
480	27	2	0.0382	12.355775	6.3178056	27.973213
481	27	2	0.0382	12.747537	7.8143388	25.321441
482	27	2	0.0382	13.630953	8.103056	26.818802
483	27	2	0.0382	11.796305	9.7895998	26.469703
484	27	2	0.0382	11.560961	8.8600671	27.949579
485	27	2	0.0382	10.1595	8.3881593	25.261173
486	27	2	0.0382	9.4149041	9.0454811	26.706965
487	28	1	-0.0764	1.5541604	23.855634	39.245009
488	28	1	-0.0764	2.8146863	24.629424	38.775752
489	28	1	-0.0764	2.4346486	25.983996	38.147087
490	28	1	-0.0764	1.5543832	25.795546	36.882191
491	28	1	-0.0764	0.73837221	24.474676	36.906896
492	28	1	-0.0764	0.31206546	24.123435	38.346844
493	28	2	0.0382	1.7797269	22.784956	39.252791
494	28	2	0.0382	1.3139941	24.137967	40.274525
495	28	2	0.0382	3.4922755	24.783163	39.621041
496	28	2	0.0382	3.3578208	24.031734	38.037472
497	28	2	0.0382	3.338477	26.541891	37.884159
498	28	2	0.0382	1.8904349	26.580269	38.885725
499	28	2	0.0382	2.1872373	25.804479	35.989611
500	28	2	0.0382	0.87331787	26.647358	36.793535
501	28	2	0.0382	1.3462974	23.6566	36.508815
502	28	2	0.0382	-0.13730947	24.566095	36.257195
503	28	2	0.0382	-0.34110438	23.245568	38.343029
504	28	2	0.0382	-0.26681589	24.955461	38.75906
505	29	1	-0.0764	2.8788599	34.012678	13.273128
506	29	1	-0.0764	3.6649331	34.039574	14.604117
507	29	1	-0.0764	3.092179	33.024774	15.619984
508	29	1	-0.0764	1.5810579	33.250525	15.846865
509	29	1	-0.0764	0.80840148	33.200638	14.510726
510	29	1	-0.0764	1.3682196	34.235847	13.510482
511	29	2	0.0382	3.2656306	34.785109	12.601525
512	29	2	0.0382	3.0303892	33.048525	12.778419
513	29	2	0.0382	4.7173187	33.810229	14.411308
514	29	2	0.0382	3.6224896	35.045824	15.031847
515	29	2	0.0382	3.6258587	33.113279	16.571112
516	29	2	0.0382	3.2549864	32.007782	15.250512
517	29	2	0.0382	1.4233644	34.222848	16.323322
518	29	2	0.0382	1.1922046	32.486758	16.527119
519	29	2	0.0382	-0.25312658	33.396034	14.690356
520	29	2	0.0382	0.88791259	32.197838	14.080189
521	29	2	0.0382	1.2039772	35.245631	13.898621
522	29	2	0.0382	0.82989633	34.160147	12.560867
523	30	1	-0.0764	30.641837	1.5822811	17.452878
524	30	1	-0.0764	30.02331	2.3795119	16.283966
525	30	1	-0.0764	30.023811	3.8970417	16.559005
526	30	1	-0.0764	29.314361	4.2186785	17.890978
527	30	1	-0.0764	29.958699	3.4417129	19.060576
528	30	1	-0.0764	29.949548	1.9225515	18.792324
529	30	2	0.0382	30.551827	0.51046647	17.251889
530	30	2	0.0382	31.711328	1.8022884	17.524053
531	30	2	0.0382	30.576637	2.1733083	15.362772
532	30	2	0.0382	28.992074	2.047208	16.130972
533	30	2	0.0382	29.516242	4.4140056	15.739
534	30	2	0.0382	31.053443	4.2659354	16.591661
535	30	2	0.0382	28.255336	3.9543268	17.814276
536	30	2	0.0382	29.366279	5.2941698	18.08569
537	30	2	0.0382	29.420662	3.6540884	19.989393
538	30	2	0.0382	30.98978	3.781001	19.198533
539	30	2	0.0382	28.91386	1.5705173	18.765877
540	30	2	0.0382	30.450611	1.399111	19.612225
541	31	1	-0.0764	18.067764	36.630697	26.809533
542	31	1	-0.0764	18.114771	35.108871	27.055261
543	31	1	-0.0764	19.560524	34.628954	27.303486
544	31	1	-0.0764	20.500979	35.045025	26.150866
545	31	1	-0.0764	20.443354	36.565633	25.890863
546	31	1	-0.0764	18.994824	37.04221	25.646782
547	31	2	0.0382	17.041159	36.935523	26.584938
548	31	2	0.0382	18.37062	37.15348	27.721813
549	31	2	0.0382	17.488506	34.858696	27.916942
550	31	2	0.0382	17.696555	34.584835	26.190529
551	31	2	0.0382	19.573325	33.540699	27.416725
552	31	2	0.0382	19.925653	35.059478	28.240824
553	31	2	0.0382	20.221915	34.504547	25.24132
554	31	2	0.0382	21.530042	34.751327	26.379006
555	31	2	0.0382	21.059499	36.807904	25.019681
556	31	2	0.0382	20.86303	37.098081	26.749735
557	31	2	0.0382	18.620744	36.612363	24.712658
558	31	2	0.0382	18.978966	38.130391	25.533209
559	32	1	-0.0764	38.823106	12.367409	15.692042
560	32	1	-0.0764	38.30276	10.992267	15.222869
561	32	1	-0.0764	38.34564	9.9646884	16.374205
562	32	1	-0.0764	39.764025	9.8447931	16.969531
563	32	1	-0.0764	40.29388	11.218451	17.434355
564	32	1	-0.0764	40.247798	12.249124	16.281263
565	32	2	0.0382	38.82561	13.067031	14.850731
566	32	2	0.0382	38.143733	12.778782	16.444708
567	32	2	0.0382	37.277184	11.09139	14.854548
568	32	2	0.0382	38.916008	10.634073	14.390452
569	32	2	0.0382	38.020663	8.9847314	16.011796
570	32	2	0.0382	37.639682	10.264082	17.154756
571	32	2	0.0382	40.437746	9.4313139	16.212943
572	32	2	0.0382	39.752469	9.1474664	17.812675
573	32	2	0.0382	41.318707	11.115161	17.803593
574	32	2	0.0382	39.696732	11.576619	18.278396
575	32	2	0.0382	40.940318	11.941721	15.491827
576	32	2	0.0382	40.584006	13.226306	16.640943
577	33	1	-0.0764	37.905505	16.086214	27.522109
578	33	1	-0.0764	37.592661	14.777745	28.281925
579	33	1	-0.0764	36.192918	14.827565	28.932667
580	33	1	-0.0764	36.042659	16.058033	29.856255
581	33	1	-0.0764	36.353564	17.369832	29.099486
582	33	1	-0.0764	37.743936	17.330685	28.423762
583	33	2	0.0382	38.92637	16.047632	27.130151
584	33	2	0.0382	37.231638	16.172724	26.664381
585	33	2	0.0382	37.645845	13.930663	27.591333
586	33	2	0.0382	38.350289	14.609134	29.053195
587	33	2	0.0382	36.021984	13.91181	29.506655
588	33	2	0.0382	35.429511	14.862927	28.149567
589	33	2	0.0382	36.715112	15.958426	30.713677
590	33	2	0.0382	35.024209	16.095477	30.254562
591	33	2	0.0382	36.3094	18.21426	29.793944
592	33	2	0.0382	35.584452	17.537568	28.339477
593	33	2	0.0382	38.524497	17.330143	29.190578
594	33	2	0.0382	37.887819	18.236511	27.827051
595	34	1	-0.0764	0.37280358	31.409178	31.048818
596	34	1	-0.0764	1.256662	30.162914	30.813432
597	34	1	-0.0764	1.1866278	29.190979	32.013662
598	34	1	-0.0764	1.5579098	29.899414	33.336058
599	34	1	-0.0764	0.68493977	31.155441	33.564534
600	34	1	-0.0764	0.7555981	32.123079	32.36289
601	34	2	0.0382	0.48086729	32.101395	30.208316
602	34	2	0.0382	-0.67939028	31.111784	31.09045
603	34	2	0.0382	0.93425564	29.648368	29.903164
604	34	2	0.0382	2.2937478	30.475152	30.657694
605	34	2	0.0382	1.8631548	28.347738	31.844711
606	34	2	0.0382	0.17467223	28.78248	32.093401
607	34	2	0.0382	2.613911	30.185199	33.31425
608	34	2	0.0382	1.4321955	29.205945	34.173069
609	34	2	0.0382	1.0153104	31.674695	34.469249
610	34	2	0.0382	-0.35353757	30.852828	33.729694
611	34	2	0.0382	1.7686491	32.527843	32.278144
612	34	2	0.0382	0.083453329	32.969651	32.532678
613	35	1	-0.0764	26.799963	10.049821	12.765877
614	35	1	-0.0764	25.272408	9.9007976	12.951366
615	35	1	-0.0764	24.685743	8.8737226	11.961931
616	35	1	-0.0764	25.03994	9.2454886	10.510261
617	35	1	-0.0764	26.569505	9.3382341	10.32921
618	35	1	-0.0764	27.16598	10.378098	11.297108
619	35	2	0.0382	27.176971	10.836961	13.425851