Title

3600 atoms
3600 bonds
7200 angles
13200 dihedrals
0 impropers

2 atom types
2 bond types
2 angle types
5 dihedral types
-2.387545854 32.61245415 xlo xhi
-1.645768434 33.35423157 ylo yhi
-2.51075089 32.48924911 zlo zhi
0.0 0.0 0.0 xy xz yz

Masses

1	12.01078
2	1.007947


Pair Coeffs

1	0.10884061	3.3795318
2	0.015779483	2.6445434

Bond Coeffs

1 harmonic	215.30139056395	1.533627603844
2 harmonic	357.8191474159	1.094206460752


Angle Coeffs

1 harmonic	66.75631831595	109.9380527584
2 harmonic	36.776637850755	108.3543135269


Dihedral Coeffs

1 fourier 1	0.3549667638131	3	0
2 fourier 1	0.2399307824079	2	180
3 fourier 1	0.9156101580834	1	180
4 fourier 1	0.0985377828486	3	0
5 fourier 1	0.2279946533057	3	0


Atoms

1	1	1	-0.0764	24.732747	24.137247	29.412215
2	1	1	-0.0764	25.926297	23.33688	28.847554
3	1	1	-0.0764	27.016308	23.155029	29.924884
4	1	1	-0.0764	27.482584	24.512894	30.4793
5	1	1	-0.0764	26.294093	25.331192	31.031525
6	1	1	-0.0764	25.191522	25.504677	29.963632
7	1	2	0.0382	23.980575	24.287722	28.631909
8	1	2	0.0382	24.25869	23.561323	30.212755
9	1	2	0.0382	25.584188	22.35831	28.497331
10	1	2	0.0382	26.348674	23.863122	27.986186
11	1	2	0.0382	27.867117	22.611234	29.503338
12	1	2	0.0382	26.617942	22.557123	30.750158
13	1	2	0.0382	27.972901	25.073819	29.67792
14	1	2	0.0382	28.222148	24.355509	31.270223
15	1	2	0.0382	26.644731	26.313269	31.362991
16	1	2	0.0382	25.877967	24.821332	31.905696
17	1	2	0.0382	25.572739	26.119292	29.142528
18	1	2	0.0382	24.337943	26.034296	30.397453
19	2	1	-0.0764	1.9127744	29.297924	33.096232
20	2	1	-0.0764	1.9312342	30.835118	32.951195
21	2	1	-0.0764	3.3644885	31.348917	32.689455
22	2	1	-0.0764	4.3325046	30.887794	33.801601
23	2	1	-0.0764	4.3179327	29.34994	33.944371
24	2	1	-0.0764	2.8861457	28.827326	34.201396
25	2	2	0.0382	0.89806199	28.960083	33.327563
26	2	2	0.0382	2.1971969	28.842044	32.143049
27	2	2	0.0382	1.2762104	31.13523	32.127686
28	2	2	0.0382	1.5386227	31.29324	33.864033
29	2	2	0.0382	3.3599454	32.44168	32.63344
30	2	2	0.0382	3.714726	30.973294	31.723258
31	2	2	0.0382	4.0428269	31.346755	34.751723
32	2	2	0.0382	5.3470248	31.227469	33.572121
33	2	2	0.0382	4.9738315	29.048216	34.766595
34	2	2	0.0382	4.712725	28.898561	33.02912
35	2	2	0.0382	2.5361225	29.187481	35.17354
36	2	2	0.0382	2.894752	27.733953	34.243271
37	3	1	-0.0764	20.341761	8.4714222	6.5934968
38	3	1	-0.0764	19.956174	9.9168217	6.2185192
39	3	1	-0.0764	19.535224	10.714492	7.4723285
40	3	1	-0.0764	18.383837	10.010105	8.2255214
41	3	1	-0.0764	18.74851	8.550421	8.574751
42	3	1	-0.0764	19.177839	7.7617091	7.3173833
43	3	2	0.0382	20.613153	7.9128891	5.6925678
44	3	2	0.0382	21.220255	8.4900349	7.2455609
45	3	2	0.0382	20.801508	10.41267	5.7318622
46	3	2	0.0382	19.130543	9.8981613	5.5006939
47	3	2	0.0382	19.221826	11.720679	7.177965
48	3	2	0.0382	20.394917	10.824699	8.1402153
49	3	2	0.0382	17.483606	10.018921	7.6035929
50	3	2	0.0382	18.152231	10.560251	9.1425759
51	3	2	0.0382	17.889832	8.0598742	9.0430701
52	3	2	0.0382	19.564176	8.5433912	9.3040848
53	3	2	0.0382	18.327986	7.6701295	6.634264
54	3	2	0.0382	19.47919	6.7488366	7.6012295
55	4	1	-0.0764	16.147376	6.8826455	2.726146
56	4	1	-0.0764	16.594537	5.4623204	3.1368637
57	4	1	-0.0764	17.873321	5.5003494	4.0033945
58	4	1	-0.0764	19.008482	6.2697136	3.2924163
59	4	1	-0.0764	18.552328	7.6931196	2.9007357
60	4	1	-0.0764	17.289313	7.6406085	2.0162076
61	4	2	0.0382	15.281062	6.8183237	2.060827
62	4	2	0.0382	15.834658	7.4398506	3.6144134
63	4	2	0.0382	15.789713	4.9707362	3.6917359
64	4	2	0.0382	16.782559	4.8667878	2.2383749
65	4	2	0.0382	18.200853	4.4787657	4.2187437
66	4	2	0.0382	17.652012	5.9793365	4.9619773
67	4	2	0.0382	19.311537	5.7234091	2.3940825
68	4	2	0.0382	19.882573	6.3273615	3.9481065
69	4	2	0.0382	19.354588	8.204546	2.3602664
70	4	2	0.0382	18.34357	8.2727468	3.8050282
71	4	2	0.0382	17.527833	7.1411389	1.0723181
72	4	2	0.0382	16.964002	8.6565542	1.7726633
73	5	1	-0.0764	17.898353	6.8243766	32.910473
74	5	1	-0.0764	17.990547	8.3401722	32.624156
75	5	1	-0.0764	19.025855	8.6304021	31.513872
76	5	1	-0.0764	20.409665	8.0448228	31.877654
77	5	1	-0.0764	20.318019	6.5324897	32.180784
78	5	1	-0.0764	19.281687	6.2517411	33.291805
79	5	2	0.0382	17.186137	6.644057	33.721352
80	5	2	0.0382	17.520156	6.3051581	32.024655
81	5	2	0.0382	17.009584	8.721019	32.324228
82	5	2	0.0382	18.277916	8.8671166	33.539059
83	5	2	0.0382	19.110609	9.7104925	31.360528
84	5	2	0.0382	18.680129	8.194508	30.571661
85	5	2	0.0382	20.806174	8.5669708	32.753687
86	5	2	0.0382	21.109054	8.2128859	31.053095
87	5	2	0.0382	21.299434	6.1593884	32.488854
88	5	2	0.0382	20.034533	5.9926111	31.272235
89	5	2	0.0382	19.618729	6.7032743	34.229791
90	5	2	0.0382	19.202099	5.1731718	33.458073
91	6	1	-0.0764	12.592237	3.6284709	17.118455
92	6	1	-0.0764	14.092319	3.9943504	17.185037
93	6	1	-0.0764	14.935089	2.806797	17.704328
94	6	1	-0.0764	14.412744	2.3056975	19.070169
95	6	1	-0.0764	12.91441	1.9377437	18.989961
96	6	1	-0.0764	12.079755	3.135061	18.489941
97	6	2	0.0382	12.013741	4.4998115	16.796899
98	6	2	0.0382	12.440002	2.8436738	16.371322
99	6	2	0.0382	14.445469	4.2904606	16.192619
100	6	2	0.0382	14.22811	4.8542163	17.847972
101	6	2	0.0382	15.981076	3.1132597	17.800689
102	6	2	0.0382	14.899757	1.9887578	16.978478
103	6	2	0.0382	14.554534	3.0861089	19.823923
104	6	2	0.0382	14.991307	1.4339133	19.390403
105	6	2	0.0382	12.557443	1.6257752	19.976137
106	6	2	0.0382	12.781265	1.0920756	18.308485
107	6	2	0.0382	12.140753	3.9484537	19.219296
108	6	2	0.0382	11.027514	2.8455648	18.410764
109	7	1	-0.0764	14.502816	32.412539	29.675627
110	7	1	-0.0764	15.321463	33.146496	30.762219
111	7	1	-0.0764	15.041671	32.560904	32.164309
112	7	1	-0.0764	13.531573	32.587752	32.486696
113	7	1	-0.0764	12.721441	31.834579	31.407897
114	7	1	-0.0764	12.991295	32.419965	30.00464
115	7	2	0.0382	14.671557	32.889206	28.705263
116	7	2	0.0382	14.849783	31.378078	29.593179
117	7	2	0.0382	16.388824	33.068399	30.534332
118	7	2	0.0382	15.067312	34.210751	30.75459
119	7	2	0.0382	15.591601	33.132989	32.917693
120	7	2	0.0382	15.405463	31.529951	32.209878
121	7	2	0.0382	13.189713	33.62565	32.54319
122	7	2	0.0382	13.357005	32.132413	33.466229
123	7	2	0.0382	11.653668	31.90125	31.63748
124	7	2	0.0382	12.992071	30.774438	31.4204
125	7	2	0.0382	12.609965	33.444586	29.959538
126	7	2	0.0382	12.446572	31.837022	29.255815
127	8	1	-0.0764	7.4664438	21.588368	25.872645
128	8	1	-0.0764	6.4038652	21.335225	24.782825
129	8	1	-0.0764	5.9758621	19.851625	24.754391
130	8	1	-0.0764	7.1945417	18.919902	24.574697
131	8	1	-0.0764	8.2602018	19.172572	25.664124
132	8	1	-0.0764	8.6857182	20.654216	25.706637
133	8	2	0.0382	7.7955228	22.631056	25.830212
134	8	2	0.0382	7.0141768	21.426032	26.855695
135	8	2	0.0382	5.5296195	21.966364	24.96896
136	8	2	0.0382	6.8059617	21.61902	23.805552
137	8	2	0.0382	5.2651471	19.689006	23.938468
138	8	2	0.0382	5.4613745	19.602616	25.687444
139	8	2	0.0382	7.636354	19.080347	23.586593
140	8	2	0.0382	6.8656158	17.877209	24.618096
141	8	2	0.0382	9.137764	18.548141	25.471122
142	8	2	0.0382	7.8644174	18.879188	26.641142
143	8	2	0.0382	9.214229	20.904667	24.781854
144	8	2	0.0382	9.3883908	20.811942	26.530447
145	9	1	-0.0764	30.074885	14.444175	20.592508
146	9	1	-0.0764	30.219309	14.230222	22.117105
147	9	1	-0.0764	30.601563	12.768716	22.436149
148	9	1	-0.0764	29.569376	11.787002	21.837387
149	9	1	-0.0764	29.430594	11.993611	20.311139
150	9	1	-0.0764	29.053004	13.455559	19.98464
151	9	2	0.0382	29.760547	15.472819	20.391574
152	9	2	0.0382	31.047459	14.300896	20.112028
153	9	2	0.0382	30.980668	14.907283	22.516119
154	9	2	0.0382	29.274819	14.473649	22.61306
155	9	2	0.0382	30.661077	12.629384	23.519816
156	9	2	0.0382	31.592181	12.552755	22.024658
157	9	2	0.0382	28.598335	11.941705	22.317429
158	9	2	0.0382	29.874375	10.756937	22.045312
159	9	2	0.0382	28.66637	11.317918	19.915295
160	9	2	0.0382	30.375295	11.741982	19.81969
161	9	2	0.0382	28.056054	13.668489	20.382178
162	9	2	0.0382	29.003477	13.593075	18.900239
163	10	1	-0.0764	27.126236	13.527336	35.148151
164	10	1	-0.0764	28.585494	13.552508	34.642453
165	10	1	-0.0764	28.947213	14.938147	34.060702
166	10	1	-0.0764	27.965834	15.345601	32.937648
167	10	1	-0.0764	26.500535	15.29699	33.432472
168	10	1	-0.0764	26.154594	13.909855	34.013453
169	10	2	0.0382	26.878715	12.529432	35.522594
170	10	2	0.0382	27.012494	14.226552	35.982091
171	10	2	0.0382	29.265704	13.306957	35.46361
172	10	2	0.0382	28.71825	12.786252	33.872697
173	10	2	0.0382	29.968669	14.916741	33.668964
174	10	2	0.0382	28.919985	15.686938	34.858112
175	10	2	0.0382	28.086846	14.670632	32.08497
176	10	2	0.0382	28.206782	16.352465	32.583447
177	10	2	0.0382	25.822947	15.531763	32.606003
178	10	2	0.0382	26.349525	16.05667	34.20537
179	10	2	0.0382	26.216927	13.158438	33.220503
180	10	2	0.0382	25.127144	13.912005	34.389791
181	11	1	-0.0764	12.24853	32.619452	18.13302
182	11	1	-0.0764	11.250911	31.448972	18.008541
183	11	1	-0.0764	9.8166454	31.904473	18.362271
184	11	1	-0.0764	9.7591078	32.557411	19.764012
185	11	1	-0.0764	10.78477	33.706129	19.900635
186	11	1	-0.0764	12.209568	33.217418	19.555708
187	11	2	0.0382	13.259661	32.26918	17.904547
188	11	2	0.0382	12.003626	33.394263	17.40023
189	11	2	0.0382	11.271517	31.04882	16.990336
190	11	2	0.0382	11.557997	30.640228	18.678554
191	11	2	0.0382	9.1361594	31.048446	18.324246
192	11	2	0.0382	9.4684905	32.620063	17.611274
193	11	2	0.0382	9.9682319	31.79944	20.52495
194	11	2	0.0382	8.7503976	32.936487	19.954005
195	11	2	0.0382	10.765489	34.099097	20.921662
196	11	2	0.0382	10.507177	34.527094	19.232616
197	11	2	0.0382	12.523919	32.460921	20.281098
198	11	2	0.0382	12.917583	34.048479	19.628779
199	12	1	-0.0764	23.586247	8.8942242	12.293525
200	12	1	-0.0764	22.13474	9.4174361	12.343512
201	12	1	-0.0764	21.708748	9.9906611	10.972127
202	12	1	-0.0764	22.664697	11.117141	10.528729
203	12	1	-0.0764	24.118271	10.604721	10.466567
204	12	1	-0.0764	24.56018	9.9975008	11.817273
205	12	2	0.0382	23.886523	8.538956	13.283935
206	12	2	0.0382	23.63976	8.0383253	11.613921
207	12	2	0.0382	21.458211	8.6082125	12.634635
208	12	2	0.0382	22.057579	10.196366	13.108104
209	12	2	0.0382	20.68763	10.37968	11.029253
210	12	2	0.0382	21.713274	9.1922408	10.223931
211	12	2	0.0382	22.598219	11.951768	11.233195
212	12	2	0.0382	22.365301	11.49368	9.5459419
213	12	2	0.0382	24.78843	11.425008	10.192145
214	12	2	0.0382	24.198127	9.8449588	9.6832007
215	12	2	0.0382	24.610398	10.788699	12.571447
216	12	2	0.0382	25.565217	9.577142	11.71488
217	13	1	-0.0764	11.179637	28.381817	21.396594
218	13	1	-0.0764	11.156391	29.469078	22.490399
219	13	1	-0.0764	9.8422748	29.41283	23.301001
220	13	1	-0.0764	8.6054301	29.52034	22.381537
221	13	1	-0.0764	8.6301464	28.448796	21.268899
222	13	1	-0.0764	9.9495018	28.49663	20.468769
223	13	2	0.0382	12.096177	28.471892	20.805721
224	13	2	0.0382	11.192816	27.395079	21.869309
225	13	2	0.0382	12.010226	29.329538	23.160312
226	13	2	0.0382	11.262461	30.455773	22.02945
227	13	2	0.0382	9.8266649	30.222595	24.036746
228	13	2	0.0382	9.8005474	28.472486	23.858933
229	13	2	0.0382	8.5763305	30.515511	21.927586
230	13	2	0.0382	7.6944661	29.409025	22.97739
231	13	2	0.0382	7.7826965	28.599589	20.593338
232	13	2	0.0382	8.512795	27.457473	21.716986
233	13	2	0.0382	9.9984604	29.437928	19.913048
234	13	2	0.0382	9.9666578	27.689261	19.730426
235	14	1	-0.0764	15.72754	31.016071	19.702456
236	14	1	-0.0764	15.241709	29.787886	20.501745
237	14	1	-0.0764	16.247267	29.418762	21.613252
238	14	1	-0.0764	17.65799	29.177105	21.02859
239	14	1	-0.0764	18.14716	30.405612	20.230963
240	14	1	-0.0764	17.141012	30.788317	19.122143
241	14	2	0.0382	15.025145	31.220217	18.888676
242	14	2	0.0382	15.735282	31.896966	20.351496
243	14	2	0.0382	14.262835	29.999485	20.942569
244	14	2	0.0382	15.117102	28.936441	19.82587
245	14	2	0.0382	15.901595	28.520951	22.134533
246	14	2	0.0382	16.290779	30.225093	22.351646
247	14	2	0.0382	17.637869	28.302977	20.370729
248	14	2	0.0382	18.359855	28.958218	21.838999
249	14	2	0.0382	19.125271	30.194216	19.788357
250	14	2	0.0382	18.276914	31.251805	20.91243
251	14	2	0.0382	17.10127	29.9915	18.373286
252	14	2	0.0382	17.48031	31.693735	18.609912
253	15	1	-0.0764	3.7249559	10.006907	23.067532
254	15	1	-0.0764	3.0075443	9.8494738	24.426851
255	15	1	-0.0764	3.1505534	11.13076	25.275621
256	15	1	-0.0764	4.6359271	11.510973	25.471249
257	15	1	-0.0764	5.368461	11.632351	24.1169
258	15	1	-0.0764	5.2130073	10.347271	23.274136
259	15	2	0.0382	3.6336088	9.083364	22.487872
260	15	2	0.0382	3.2479244	10.804132	22.489464
261	15	2	0.0382	1.9477355	9.629097	24.267077
262	15	2	0.0382	3.4348759	9.0024811	24.972086
263	15	2	0.0382	2.679565	10.975853	26.251049
264	15	2	0.0382	2.6238269	11.954987	24.785209
265	15	2	0.0382	5.1314735	10.750669	26.082525
266	15	2	0.0382	4.7059232	12.457765	26.015289
267	15	2	0.0382	6.4299625	11.829207	24.295073
268	15	2	0.0382	4.9648938	12.48227	23.558273
269	15	2	0.0382	5.7091826	9.513464	23.779967
270	15	2	0.0382	5.6997925	10.479732	22.303164
271	16	1	-0.0764	28.248639	29.443047	22.818446
272	16	1	-0.0764	26.918285	29.048126	22.13903
273	16	1	-0.0764	26.550581	27.578037	22.439702
274	16	1	-0.0764	27.689526	26.627207	22.012267
275	16	1	-0.0764	29.0132	27.007189	22.711687
276	16	1	-0.0764	29.392736	28.479147	22.42708
277	16	2	0.0382	28.517509	30.465684	22.53701
278	16	2	0.0382	28.116214	29.436164	23.904586
279	16	2	0.0382	26.117845	29.704776	22.493136
280	16	2	0.0382	27.003331	29.190178	21.05742
281	16	2	0.0382	25.629518	27.311208	21.912694
282	16	2	0.0382	26.358695	27.461476	23.51063
283	16	2	0.0382	27.819109	26.679468	20.927014
284	16	2	0.0382	27.423646	25.595152	22.260191
285	16	2	0.0382	29.816463	26.345966	22.372801
286	16	2	0.0382	28.909819	26.854715	23.790271
287	16	2	0.0382	29.617229	28.596368	21.362584
288	16	2	0.0382	30.300713	28.740399	22.979004
289	17	1	-0.0764	0.98400332	19.503047	11.076453
290	17	1	-0.0764	-0.13139883	18.792197	10.278056
291	17	1	-0.0764	-0.018331705	19.101418	8.7678099
292	17	1	-0.0764	-0.024594264	20.623498	8.5101497
293	17	1	-0.0764	1.0982922	21.322341	9.3062419
294	17	1	-0.0764	0.97307153	21.02437	10.815886
295	17	2	0.0382	0.85383937	19.311537	12.145878
296	17	2	0.0382	1.9559731	19.093423	10.785298
297	17	2	0.0382	-0.066082459	17.711806	10.438619
298	17	2	0.0382	-1.1088254	19.11918	10.645498
299	17	2	0.0382	-0.84954128	18.634899	8.2304698
300	17	2	0.0382	0.90640612	18.668582	8.3743584
301	17	2	0.0382	-0.99318318	21.038337	8.8051707
302	17	2	0.0382	0.10430404	20.81728	7.4409789
303	17	2	0.0382	1.0511614	22.402949	9.1408837
304	17	2	0.0382	2.0707873	20.976129	8.9433587
305	17	2	0.0382	0.042249965	21.454546	11.197745
306	17	2	0.0382	1.7979915	21.498237	11.356488
307	18	1	-0.0764	30.599802	12.12018	5.2415812
308	18	1	-0.0764	30.00329	13.512422	4.9332261
309	18	1	-0.0764	29.969668	13.779174	3.4133056
310	18	1	-0.0764	31.380467	13.635484	2.7979276
311	18	1	-0.0764	31.985514	12.24601	3.1050071
312	18	1	-0.0764	32.008188	11.96834	4.6256933
313	18	2	0.0382	30.652077	11.971507	6.32438
314	18	2	0.0382	29.942756	11.343697	4.8382798
315	18	2	0.0382	28.990571	13.580291	5.3419799
316	18	2	0.0382	30.60426	14.284581	5.423016
317	18	2	0.0382	29.584243	14.785405	3.2229418
318	18	2	0.0382	29.284902	13.073056	2.9339507
319	18	2	0.0382	32.034342	14.414924	3.2006842
320	18	2	0.0382	31.329324	13.78427	1.7150898
321	18	2	0.0382	33.003049	12.191594	2.7063161
322	18	2	0.0382	31.398282	11.472449	2.6009724
323	18	2	0.0382	32.697256	12.66515	5.1124465
324	18	2	0.0382	32.384	10.95752	4.8109022
325	19	1	-0.0764	8.6648923	5.8816046	5.7689649
326	19	1	-0.0764	7.3579979	6.4170289	5.1383698
327	19	1	-0.0764	7.554273	7.8334355	4.5509228
328	19	1	-0.0764	8.1088895	8.8073397	5.6139892
329	19	1	-0.0764	9.4218534	8.2697105	6.2258762
330	19	1	-0.0764	9.214167	6.8615168	6.829561
331	19	2	0.0382	8.4778905	4.9065766	6.2290096
332	19	2	0.0382	9.4156396	5.7322794	4.9870628
333	19	2	0.0382	7.0226872	5.7350379	4.3511292
334	19	2	0.0382	6.5720826	6.4456666	5.8991671
335	19	2	0.0382	6.5983605	8.2087529	4.1732284
336	19	2	0.0382	8.2436532	7.7865809	3.702482
337	19	2	0.0382	7.3661757	8.9420724	6.4061469
338	19	2	0.0382	8.2845539	9.7881585	5.161851
339	19	2	0.0382	9.7761828	8.9565349	7.0004785
340	19	2	0.0382	10.195401	8.2267725	5.4531699
341	19	2	0.0382	8.5122687	6.9204003	7.6669163
342	19	2	0.0382	10.161992	6.4853585	7.2263277
343	20	1	-0.0764	30.650182	31.226192	25.560102
344	20	1	-0.0764	32.143874	31.268697	25.172246
345	20	1	-0.0764	32.761993	32.649317	25.488777
346	20	1	-0.0764	31.974339	33.78413	24.794495
347	20	1	-0.0764	30.471957	33.730576	25.15959
348	20	1	-0.0764	29.863815	32.345679	24.845121
349	20	2	0.0382	30.228081	30.251796	25.296147
350	20	2	0.0382	30.549965	31.344795	26.643238
351	20	2	0.0382	32.687473	30.486867	25.711257
352	20	2	0.0382	32.246695	31.060102	24.103038
353	20	2	0.0382	33.805232	32.670307	25.159378
354	20	2	0.0382	32.758894	32.811847	26.570845
355	20	2	0.0382	32.090173	33.696313	23.709986
356	20	2	0.0382	32.390108	34.753175	25.086699
357	20	2	0.0382	29.930058	34.504881	24.608147
358	20	2	0.0382	30.350645	33.943098	26.226084
359	20	2	0.0382	29.881713	32.173588	23.764677
360	20	2	0.0382	28.816829	32.321584	25.162191
361	21	1	-0.0764	20.080297	8.322677	17.292278
362	21	1	-0.0764	19.00754	7.26219	17.62701
363	21	1	-0.0764	19.646844	6.0221088	18.288895
364	21	1	-0.0764	20.758829	5.4251426	17.397413
365	21	1	-0.0764	21.826699	6.4868206	17.04253
366	21	1	-0.0764	21.187959	7.7343321	16.392678
367	21	2	0.0382	19.61321	9.1749746	16.789581
368	21	2	0.0382	20.523782	8.6933881	18.221356
369	21	2	0.0382	18.260304	7.691949	18.30098
370	21	2	0.0382	18.48749	6.9633734	16.711832
371	21	2	0.0382	18.879043	5.2649742	18.474687
372	21	2	0.0382	20.067708	6.3051069	19.258469
373	21	2	0.0382	20.314286	5.0334579	16.477494
374	21	2	0.0382	21.232607	4.5827365	17.910423
375	21	2	0.0382	22.564189	6.0525322	16.360774
376	21	2	0.0382	22.3597	6.7885721	17.949251
377	21	2	0.0382	20.763125	7.4676478	15.420218
378	21	2	0.0382	21.957035	8.4912658	16.211395
379	22	1	-0.0764	28.853073	30.837946	32.229846
380	22	1	-0.0764	27.763839	29.79383	31.893187
381	22	1	-0.0764	26.747792	30.35965	30.875251
382	22	1	-0.0764	26.117976	31.674528	31.38617
383	22	1	-0.0764	27.209742	32.717569	31.712849
384	22	1	-0.0764	28.22232	32.155683	32.735779
385	22	2	0.0382	29.527874	30.435615	32.991467
386	22	2	0.0382	29.453382	31.040194	31.337645
387	22	2	0.0382	28.230691	28.891337	31.487174
388	22	2	0.0382	27.239285	29.504185	32.808743
389	22	2	0.0382	25.962591	29.620869	30.688295
390	22	2	0.0382	27.253129	30.549104	29.923396
391	22	2	0.0382	25.524178	31.472175	32.282693
392	22	2	0.0382	25.438516	32.078094	30.629361
393	22	2	0.0382	26.745965	33.624563	32.112305
394	22	2	0.0382	27.734983	32.996805	30.794456
395	22	2	0.0382	27.713668	31.975701	33.687711
396	22	2	0.0382	29.008448	32.894003	32.920651
397	23	1	-0.0764	10.799079	23.810453	21.965182
398	23	1	-0.0764	10.124061	22.661552	22.739594
399	23	1	-0.0764	9.1596353	21.878867	21.823158
400	23	1	-0.0764	8.0883443	22.819524	21.226587
401	23	1	-0.0764	8.7402433	23.984025	20.448251
402	23	1	-0.0764	9.754082	24.749432	21.326566
403	23	2	0.0382	11.442671	24.382176	22.640619
404	23	2	0.0382	11.438706	23.39066	21.182926
405	23	2	0.0382	10.88758	21.985693	23.136508
406	23	2	0.0382	9.5720941	23.06931	23.591862
407	23	2	0.0382	8.675257	21.07774	22.389605
408	23	2	0.0382	9.7256607	21.404629	21.015692
409	23	2	0.0382	7.4694455	23.224616	22.032912
410	23	2	0.0382	7.4282962	22.254722	20.561285
411	23	2	0.0382	7.9656786	24.672515	20.097082
412	23	2	0.0382	9.2472154	23.594534	19.560243
413	23	2	0.0382	9.2170948	25.27602	22.121313
414	23	2	0.0382	10.264142	25.503783	20.719876
415	24	1	-0.0764	23.686607	3.7904197	13.852669
416	24	1	-0.0764	24.720037	3.2192215	12.856672
417	24	1	-0.0764	24.01849	2.444717	11.717805
418	24	1	-0.0764	23.123858	1.3222905	12.28271
419	24	1	-0.0764	22.094023	1.8841115	13.283311
420	24	1	-0.0764	22.78815	2.6695144	14.418969
421	24	2	0.0382	24.205847	4.2934209	14.674047
422	24	2	0.0382	23.067338	4.5395872	13.350126
423	24	2	0.0382	25.32028	4.0330464	12.438715
424	24	2	0.0382	25.405233	2.5500783	13.385869
425	24	2	0.0382	24.767463	2.0128952	11.047095
426	24	2	0.0382	23.408213	3.133733	11.126103
427	24	2	0.0382	23.747685	0.57838771	12.787412
428	24	2	0.0382	22.607164	0.81437752	11.462746
429	24	2	0.0382	21.510072	1.0640366	13.711981
430	24	2	0.0382	21.396449	2.5383326	12.751647
431	24	2	0.0382	23.395743	1.9832136	15.016562
432	24	2	0.0382	22.036283	3.1008393	15.086761
433	25	1	-0.0764	25.765443	33.437996	13.69869
434	25	1	-0.0764	25.513017	32.29722	14.709429
435	25	1	-0.0764	26.01994	30.945392	14.156858
436	25	1	-0.0764	25.37138	30.632024	12.791078
437	25	1	-0.0764	25.626235	31.769764	11.779594
438	25	1	-0.0764	25.120935	33.11986	12.330921
439	25	2	0.0382	25.360653	34.375277	14.092312
440	25	2	0.0382	26.842487	33.58006	13.568001
441	25	2	0.0382	26.014364	32.522397	15.655599
442	25	2	0.0382	24.441028	32.228806	14.917884
443	25	2	0.0382	25.793285	30.145419	14.868168
444	25	2	0.0382	27.107928	30.977614	14.044902
445	25	2	0.0382	24.293921	30.49535	12.92408
446	25	2	0.0382	25.775387	29.695332	12.395265
447	25	2	0.0382	25.121729	31.544838	10.835046
448	25	2	0.0382	26.697953	31.836753	11.569295
449	25	2	0.0382	24.0328	33.08212	12.439646
450	25	2	0.0382	25.347345	33.919487	11.619146
451	26	1	-0.0764	5.1269776	16.996503	0.29911386
452	26	1	-0.0764	4.7703394	18.427991	0.75887099
453	26	1	-0.0764	5.5960345	19.490905	-0.00096002434
454	26	1	-0.0764	7.1123797	19.21759	0.1210597
455	26	1	-0.0764	7.4565369	17.788595	-0.35667498
456	26	1	-0.0764	6.6435617	16.732442	0.42375118
457	26	2	0.0382	4.5751327	16.267573	0.90029486
458	26	2	0.0382	4.8155433	16.858341	-0.74069701
459	26	2	0.0382	3.7026662	18.609872	0.60303412
460	26	2	0.0382	4.9619561	18.521348	1.8321133
461	26	2	0.0382	5.3667104	20.485058	0.39446309
462	26	2	0.0382	5.3095609	19.489474	-1.0569987
463	26	2	0.0382	7.4240768	19.340453	1.1627135
464	26	2	0.0382	7.6682001	19.949304	-0.4730358
465	26	2	0.0382	8.5261774	17.600261	-0.22369517
466	26	2	0.0382	7.2428775	17.698923	-1.4260688
467	26	2	0.0382	6.9322759	16.753951	1.4789654
468	26	2	0.0382	6.8764311	15.733851	0.041815997
469	27	1	-0.0764	12.218117	4.4507578	25.356081
470	27	1	-0.0764	12.42291	5.9646624	25.122702
471	27	1	-0.0764	11.910461	6.7839384	26.329117
472	27	1	-0.0764	10.430341	6.465714	26.626875
473	27	1	-0.0764	10.226914	4.9542364	26.86131
474	27	1	-0.0764	10.734503	4.1346994	25.654371
475	27	2	0.0382	12.546161	3.8939849	24.473085
476	27	2	0.0382	12.837523	4.1231164	26.196487
477	27	2	0.0382	13.483758	6.1746955	24.956052
478	27	2	0.0382	11.887655	6.2700593	24.218528
479	27	2	0.0382	12.023928	7.8527617	26.124113
480	27	2	0.0382	12.51436	6.5540349	27.21215
481	27	2	0.0382	9.8109281	6.7877537	25.784314
482	27	2	0.0382	10.102397	7.0245624	27.508597
483	27	2	0.0382	9.1657126	4.7471392	27.029369
484	27	2	0.0382	10.765424	4.6486554	27.763481
485	27	2	0.0382	10.127461	4.3657476	24.773796
486	27	2	0.0382	10.617785	3.0660102	25.858247
487	28	1	-0.0764	30.521801	16.201829	27.847042
488	28	1	-0.0764	31.044691	17.53751	27.275276
489	28	1	-0.0764	31.375201	17.399396	25.771649
490	28	1	-0.0764	32.387304	16.255833	25.527732
491	28	1	-0.0764	31.872129	14.920416	26.112072
492	28	1	-0.0764	31.54475	15.066442	27.614625
493	28	2	0.0382	30.321662	16.311417	28.917193
494	28	2	0.0382	29.574435	15.943717	27.364166
495	28	2	0.0382	30.294051	18.320389	27.419958
496	28	2	0.0382	31.942482	17.843002	27.821116
497	28	2	0.0382	31.786261	18.341298	25.395963
498	28	2	0.0382	30.456204	17.198962	25.212574
499	28	2	0.0382	33.344622	16.511501	25.991929
500	28	2	0.0382	32.565222	16.144239	24.453869
501	28	2	0.0382	32.626061	14.139868	25.971997
502	28	2	0.0382	30.973964	14.606715	25.57153
503	28	2	0.0382	32.463593	15.280044	28.169048
504	28	2	0.0382	31.147473	14.122996	28.001101
505	29	1	-0.0764	7.8203958	15.271827	6.211732
506	29	1	-0.0764	6.5443277	15.08885	7.0611203
507	29	1	-0.0764	6.8815494	14.569378	8.471604
508	29	1	-0.0764	7.6962572	13.261751	8.4045202
509	29	1	-0.0764	8.9754158	13.435766	7.5646913
510	29	1	-0.0764	8.6448079	13.964242	6.1503482
511	29	2	0.0382	7.5471997	15.585731	5.1997441
512	29	2	0.0382	8.4312463	16.071736	6.6410255
513	29	2	0.0382	6.0182649	16.044905	7.14176
514	29	2	0.0382	5.8717483	14.382631	6.5649515
515	29	2	0.0382	5.9564048	14.396222	9.0296429
516	29	2	0.0382	7.45112	15.330839	9.0129441
517	29	2	0.0382	7.0836192	12.469466	7.9637939
518	29	2	0.0382	7.9610997	12.946448	9.4182843
519	29	2	0.0382	9.5013207	12.47911	7.4903524
520	29	2	0.0382	9.6482193	14.132991	8.0731076
521	29	2	0.0382	8.0784935	13.204185	5.6036347
522	29	2	0.0382	9.5730817	14.140555	5.5985224
523	30	1	-0.0764	4.80685	14.374033	19.009687
524	30	1	-0.0764	4.2152888	15.608928	18.289092
525	30	1	-0.0764	4.6851832	16.925157	18.947711
526	30	1	-0.0764	4.3438569	16.940956	20.453603
527	30	1	-0.0764	4.9668068	15.722742	21.169024
528	30	1	-0.0764	4.5010969	14.398472	20.524654
529	30	2	0.0382	4.3962741	13.461152	18.567688
530	30	2	0.0382	5.8906913	14.34791	18.861718
531	30	2	0.0382	4.5087355	15.598329	17.23502
532	30	2	0.0382	3.1225893	15.559069	18.317497
533	30	2	0.0382	4.2105034	17.776605	18.450712
534	30	2	0.0382	5.7660794	17.035639	18.818291
535	30	2	0.0382	3.2575196	16.928144	20.583997
536	30	2	0.0382	4.7174534	17.864777	20.905569
537	30	2	0.0382	4.6898195	15.735166	22.227519
538	30	2	0.0382	6.0573894	15.792357	21.113596
539	30	2	0.0382	3.4255183	14.277183	20.684965
540	30	2	0.0382	4.9942973	13.553684	21.014936
541	31	1	-0.0764	8.6537659	29.056923	29.442515
542	31	1	-0.0764	7.4129337	28.647501	30.267794
543	31	1	-0.0764	6.2437999	29.62549	30.021119
544	31	1	-0.0764	6.6624779	31.081221	30.333569
545	31	1	-0.0764	7.9051375	31.490932	29.51144
546	31	1	-0.0764	9.0759951	30.511777	29.753101
547	31	2	0.0382	9.4830507	28.376911	29.659686
548	31	2	0.0382	8.4250516	28.96492	28.376439
549	31	2	0.0382	7.1086067	27.631774	29.997652
550	31	2	0.0382	7.6654905	28.640563	31.332433
551	31	2	0.0382	5.3897548	29.345319	30.645137
552	31	2	0.0382	5.9244138	29.551089	28.977208
553	31	2	0.0382	6.8842536	31.175108	31.400948
554	31	2	0.0382	5.8345699	31.762354	30.114675
555	31	2	0.0382	8.2100451	32.50608	29.783099
556	31	2	0.0382	7.6520544	31.501751	28.44696
557	31	2	0.0382	9.401865	30.583405	30.795202
558	31	2	0.0382	9.9273515	30.791826	29.125361
559	32	1	-0.0764	31.757557	21.06724	6.3387954
560	32	1	-0.0764	32.399285	22.442997	6.625073
561	32	1	-0.0764	31.615219	23.570418	5.9197909
562	32	1	-0.0764	31.536605	23.313713	4.3976143
563	32	1	-0.0764	30.915475	21.929471	4.0968838
564	32	1	-0.0764	31.689541	20.802109	4.8191303
565	32	2	0.0382	32.33531	20.27694	6.8275875
566	32	2	0.0382	30.746889	21.042595	6.7574
567	32	2	0.0382	32.421517	22.626958	7.7034742
568	32	2	0.0382	33.435366	22.443464	6.2731797
569	32	2	0.0382	32.10114	24.53253	6.1082268
570	32	2	0.0382	30.604477	23.628004	6.3349777
571	32	2	0.0382	32.541804	23.363421	3.9681983
572	32	2	0.0382	30.93992	24.097457	3.921161
573	32	2	0.0382	30.922863	21.748691	3.0177382
574	32	2	0.0382	29.870448	21.921387	4.4211522
575	32	2	0.0382	32.703938	20.737026	4.4140869
576	32	2	0.0382	31.203856	19.839563	4.6322975
577	33	1	-0.0764	26.367891	8.1363535	33.357885
578	33	1	-0.0764	26.328721	6.7089051	33.946769
579	33	1	-0.0764	27.645593	5.9516186	33.660216
580	33	1	-0.0764	27.965047	5.9390301	32.147188
581	33	1	-0.0764	28.010254	7.3769784	31.583629
582	33	1	-0.0764	26.670806	8.1006765	31.844542
583	33	2	0.0382	25.410092	8.6348665	33.535037
584	33	2	0.0382	27.136617	8.7238228	33.86899
585	33	2	0.0382	26.159971	6.7588598	35.026729
586	33	2	0.0382	25.488298	6.1593848	33.512018
587	33	2	0.0382	27.569516	4.9247208	34.03033
588	33	2	0.0382	28.466778	6.4311147	34.201539
589	33	2	0.0382	27.200491	5.3635645	31.61654
590	33	2	0.0382	28.925037	5.4425961	31.97613
591	33	2	0.0382	28.220668	7.3511094	30.510156
592	33	2	0.0382	28.825483	7.9316193	32.058043
593	33	2	0.0382	25.863478	7.5833559	31.317387
594	33	2	0.0382	26.713483	9.120872	31.451273
595	34	1	-0.0764	10.335841	18.37853	8.2613724
596	34	1	-0.0764	9.0040362	18.480787	9.0357047
597	34	1	-0.0764	9.2095131	18.17073	10.534457
598	34	1	-0.0764	9.8602968	16.782677	10.735676
599	34	1	-0.0764	11.170452	16.639068	9.9319512
600	34	1	-0.0764	10.974891	16.986895	8.4403884
601	34	2	0.0382	10.161262	18.568366	7.1979946
602	34	2	0.0382	11.029272	19.145002	8.6204743
603	34	2	0.0382	8.5894799	19.486966	8.9215374
604	34	2	0.0382	8.279388	17.779182	8.6115247
605	34	2	0.0382	8.2461572	18.205503	11.05217
606	34	2	0.0382	9.8431391	18.942511	10.981849
607	34	2	0.0382	9.1575211	16.003076	10.426462
608	34	2	0.0382	10.069487	16.624582	11.798
609	34	2	0.0382	11.537294	15.612413	10.025144
610	34	2	0.0382	11.936421	17.293547	10.358832
611	34	2	0.0382	10.332818	16.234837	7.9719692
612	34	2	0.0382	11.939373	16.950762	7.9248708
613	35	1	-0.0764	5.8242929	30.045657	8.4893292
614	35	1	-0.0764	4.4554853	29.424527	8.1344563
615	35	1	-0.0764	3.5897705	30.427444	7.3425245
616	35	1	-0.0764	3.4077927	31.745067	8.1324494
617	35	1	-0.0764	4.7697565	32.361753	8.5325664
618	35	1	-0.0764	5.6472141	31.348832	9.2991525
619	35	2	0.0382	6.4190781	29.329987	9.0649456
620	35	2	0.0382	6.3750154	30.26294	7.5691193
621	35	2	0.0382	4.6026379	28.514299	7.5452912
622	35	2	0.0382	3.9322501	29.135027	9.0508109
623	35	2	0.0382	2.6115626	29.984479	7.1323282
624	35	2	0.0382	4.0646684	30.639691	6.3798636
625	35	2	0.0382	2.8203991	31.549091	9.0345895
626	35	2	0.0382	2.84318	32.461071	7.5276005
627	35	2	0.0382	4.6053648	33.249528	9.1507232
628	35	2	0.0382	5.3015149	32.691379	7.6348704
629	35	2	0.0382	5.1835781	31.123626	10.264355
630	35	2	0.0382	6.6273952	31.790724	9.5022982
631	36	1	-0.0764	6.2219292	12.466166	29.97386
632	36	1	-0.0764	5.7961899	13.129461	31.304195
633	36	1	-0.0764	6.9029218	14.068536	31.834505
634	36	1	-0.0764	8.2403934	13.311527	31.99826
635	36	1	-0.0764	8.668102	12.6416	30.672033
636	36	1	-0.0764	7.558735	11.707352	30.135584
637	36	2	0.0382	5.4436773	11.77308	29.640324
638	36	2	0.0382	6.3279068	13.233476	29.201009
639	36	2	0.0382	4.8723477	13.696874	31.156387
640	36	2	0.0382	5.5867422	12.354805	32.048061
641	36	2	0.0382	6.5979856	14.491698	32.7964