Title

2718 atoms
1818 bonds
936 angles
66 dihedrals
0 impropers

4 atom types
3 bond types
3 angle types
5 dihedral types
-2.245070925 27.75492908 xlo xhi
-2.430179252 27.56982075 ylo yhi
-1.42830039 28.57169961 zlo zhi
0.0 0.0 0.0 xy xz yz

Masses

1	12.01078
2	1.007947
3	15.99943
4	1.007947


Pair Coeffs

1	0.10884061	3.3795318
2	0.015779483	2.6445434
3	0.163406	3.1742704
4	0	1.7817974

Bond Coeffs

1 harmonic	215.30139056395	1.533627603844
2 harmonic	357.8191474159	1.094206460752
3 harmonic	538.350794015	0.9752301008088


Angle Coeffs

1 harmonic	66.75631831595	109.9380527584
2 harmonic	36.776637850755	108.3543135269
3 harmonic	119.8958895535	112.8736161145


Dihedral Coeffs

1 fourier 1	0.3549667638131	3	0
2 fourier 1	0.2399307824079	2	180
3 fourier 1	0.9156101580834	1	180
4 fourier 1	0.0985377828486	3	0
5 fourier 1	0.2279946533057	3	0


Atoms

1	1	1	-0.0764	1.1090745	0.88484919	-0.15026654
2	1	1	-0.0764	-0.29330989	1.3786629	-0.37375139
3	1	1	-0.0764	-1.2286063	0.58356637	0.49499465
4	1	1	-0.0764	-1.1914228	-0.84425563	-0.034563005
5	1	1	-0.0764	0.16704585	-1.3845138	0.39897933
6	1	1	-0.0764	1.2468136	-0.60525563	-0.28870494
7	1	2	0.0382	1.7689315	1.3273862	-0.9401787
8	1	2	0.0382	1.5369011	1.2657942	0.81321022
9	1	2	0.0382	-0.32116732	2.4496373	-0.13172216
10	1	2	0.0382	-0.55628765	1.1491688	-1.4283004
11	1	2	0.0382	-2.2450709	0.98818088	0.56063782
12	1	2	0.0382	-0.80005841	0.53645259	1.5114915
13	1	2	0.0382	-1.1712041	-0.84017787	-1.149061
14	1	2	0.0382	-2.0248037	-1.4430387	0.34658519
15	1	2	0.0382	0.22984234	-2.4301793	0.059865882
16	1	2	0.0382	0.24746944	-1.2815005	1.5022336
17	1	2	0.0382	1.291936	-0.853279	-1.3572276
18	1	2	0.0382	2.2339168	-0.88149797	0.16577751
19	2	3	-0.89517	18.549	18.778999	10.218
20	2	4	0.447585	17.841	18.343	9.7010002
21	2	4	0.447585	19.441	18.57	9.8649998
22	3	3	-0.89517	8.5109997	21.450003	17.240999
23	3	4	0.447585	7.868	22.179001	17.362
24	3	4	0.447585	8.0649996	20.584	17.118
25	4	3	-0.89517	15.371	23.396999	9.3789997
26	4	4	0.447585	15.852001	23.540001	10.220001
27	4	4	0.447585	15.863	23.756001	8.6090002
28	5	3	-0.89517	28.441999	8.8079996	16.378
29	5	4	0.447585	28.296001	9.7749996	16.42
30	5	4	0.447585	29.396999	8.5819998	16.356001
31	6	3	-0.89517	24.695999	19.174	17.046
32	6	4	0.447585	23.718002	19.215	17.084999
33	6	4	0.447585	25.079	19.969999	16.618
34	7	3	-0.89517	15.537	27.378002	14.764
35	7	4	0.447585	15.315	26.447001	14.552001
36	7	4	0.447585	14.763	27.972	14.657001
37	8	3	-0.89517	17.073	17.705999	13.466
38	8	4	0.447585	16.288	17.176001	13.22
39	8	4	0.447585	17.871	17.146999	13.584
40	9	3	-0.89517	10.453	19.746	22.905003
41	9	4	0.447585	10.466	20.003002	23.85
42	9	4	0.447585	10.703	18.805	22.777002
43	10	3	-0.89517	27.67	10.076	2.8210001
44	10	4	0.447585	26.718002	10.209	3.0109999
45	10	4	0.447585	28.177002	9.8500004	3.6310003
46	11	3	-0.89517	11.495	16.629	11.364001
47	11	4	0.447585	10.726	16.122	11.698
48	11	4	0.447585	11.567	17.509001	11.793001
49	12	3	-0.89517	10.735001	4.7870002	27.502001
50	12	4	0.447585	11.575001	5.23	27.26
51	12	4	0.447585	10.41	5.0749998	28.382999
52	13	3	-0.89517	1.6680001	28.451002	22.312
53	13	4	0.447585	1.064	27.771	22.676001
54	13	4	0.447585	1.178	29.174002	21.864002
55	14	3	-0.89517	8.8780003	25.256002	9.5459995
56	14	4	0.447585	8.4809999	24.556999	8.9870005
57	14	4	0.447585	9.8570004	25.275	9.4689999
58	15	3	-0.89517	26.219002	5.369	23.625
59	15	4	0.447585	25.472	5.1310005	24.212
60	15	4	0.447585	26.733999	4.5809999	23.349001
61	16	3	-0.89517	12.875	17.740999	1.072
62	16	4	0.447585	12.461	18	1.921
63	16	4	0.447585	13.433	18.459999	0.70200002
64	17	3	-0.89517	15.147	23.197001	7.2480006
65	17	4	0.447585	15.555	22.334999	7.026
66	17	4	0.447585	14.167	23.165001	7.1880002
67	18	3	-0.89517	9.5710001	5.0480003	22.211
68	18	4	0.447585	9.6260004	4.0749998	22.306999
69	18	4	0.447585	8.6470003	5.3710003	22.285999
70	19	3	-0.89517	8.4200001	5.9450002	16.084999
71	19	4	0.447585	9.3579998	6.0110002	16.357
72	19	4	0.447585	8.2670002	5.191	15.476
73	20	3	-0.89517	11.257	17.923	19.285
74	20	4	0.447585	10.871	17.471001	18.506001
75	20	4	0.447585	10.744	17.743	20.103001
76	21	3	-0.89517	21.507999	23.963001	17.030001
77	21	4	0.447585	20.664001	23.700001	16.608999
78	21	4	0.447585	21.977001	23.195	17.422001
79	22	3	-0.89517	14.708	28.083	1.9880002
80	22	4	0.447585	15.598001	27.681999	2.079
81	22	4	0.447585	14.345001	28.366001	2.8550003
82	23	3	-0.89517	9.0389996	21.339001	23.213001
83	23	4	0.447585	9.283	21.666	22.322002
84	23	4	0.447585	8.8030005	20.386	23.201
85	24	3	-0.89517	12.714	12.133001	7.1799998
86	24	4	0.447585	13.595	11.844	6.868
87	24	4	0.447585	12.727001	13.058	7.5110002
88	25	3	-0.89517	11.038	6.9099998	11.515001
89	25	4	0.447585	11.845001	6.3790007	11.674
90	25	4	0.447585	11.126001	7.8240004	11.863001
91	26	3	-0.89517	13.383001	16.162001	1.507
92	26	4	0.447585	13.647001	15.666	2.309
93	26	4	0.447585	13.064001	15.565	0.796
94	27	3	-0.89517	19.959	14.366001	24.426001
95	27	4	0.447585	20.351999	13.479	24.292
96	27	4	0.447585	18.981001	14.325	24.509001
97	28	3	-0.89517	3.2909999	1.8300002	11.097001
98	28	4	0.447585	3.931	1.141	10.825
99	28	4	0.447585	3.7119999	2.7149999	11.164
100	29	3	-0.89517	24.207001	27.232	4.2540002
101	29	4	0.447585	23.979	26.488001	3.6600003
102	29	4	0.447585	23.415001	27.755001	4.507
103	30	3	-0.89517	1.8870001	24.160002	6.0689998
104	30	4	0.447585	1.08	23.606003	6.0980005
105	30	4	0.447585	2.7049999	23.617001	6.0619998
106	31	3	-0.89517	12.636	13.324001	21.198002
107	31	4	0.447585	12.753	12.358	21.310001
108	31	4	0.447585	11.744001	13.548001	20.854
109	32	3	-0.89517	2.5350001	23.16	6.3630004
110	32	4	0.447585	1.5930002	23.370001	6.526
111	32	4	0.447585	2.882	22.506001	7.0090003
112	33	3	-0.89517	6.1589999	22.163	1.275
113	33	4	0.447585	6.0330005	21.972	0.32300001
114	33	4	0.447585	6.671	21.457003	1.7260001
115	34	3	-0.89517	17.5	11.085	14.246
116	34	4	0.447585	17.129999	11.984	14.133
117	34	4	0.447585	18.457001	11.107	14.467
118	35	3	-0.89517	10.801	15.178001	13.666
119	35	4	0.447585	10.341	16.042	13.62
120	35	4	0.447585	10.2	14.458	13.956001
121	36	3	-0.89517	18.615	28.799999	11.724
122	36	4	0.447585	18.627001	27.898003	11.342
123	36	4	0.447585	19.437	29.295002	11.52
124	37	3	-0.89517	5.7170005	14.339	24.094
125	37	4	0.447585	4.8899999	14.851	23.985003
126	37	4	0.447585	5.5890007	13.387001	23.892
127	38	3	-0.89517	25.889	21.360001	27.732
128	38	4	0.447585	26.643	21.879002	27.383001
129	38	4	0.447585	25.044001	21.857002	27.672003
130	39	3	-0.89517	27.431	10.653	23.302
131	39	4	0.447585	28.298	10.349001	22.962999
132	39	4	0.447585	26.751001	9.9460001	23.256001
133	40	3	-0.89517	21.926001	12.583	15.223
134	40	4	0.447585	22.692001	12.5	15.827
135	40	4	0.447585	22.186001	12.465	14.284
136	41	3	-0.89517	7.9130001	15.406	28.972
137	41	4	0.447585	7.3559999	15.631	28.199001
138	41	4	0.447585	8.2340002	16.208	29.438
139	42	3	-0.89517	20.660999	12.03	17.249001
140	42	4	0.447585	20.481003	11.077	17.112
141	42	4	0.447585	19.958	12.463001	17.778999
142	43	3	-0.89517	15.406	26.961	6.0139999
143	43	4	0.447585	16.122	27.405003	6.513
144	43	4	0.447585	14.896001	27.594002	5.4640002
145	44	3	-0.89517	9.4029999	21.445	4.7410002
146	44	4	0.447585	9.0830002	20.621002	4.3200002
147	44	4	0.447585	8.717	22.148001	4.7379999
148	45	3	-0.89517	28.559999	17.712999	28.514002
149	45	4	0.447585	28.681	18.337999	29.258001
150	45	4	0.447585	27.632	17.396999	28.448
151	46	3	-0.89517	16.747999	27.983	16.672001
152	46	4	0.447585	16.813999	28.059002	17.646
153	46	4	0.447585	15.916	28.377001	16.329
154	47	3	-0.89517	26.927002	21.332001	19.771
155	47	4	0.447585	26.058002	21.774002	19.868999
156	47	4	0.447585	27.347	21.154001	20.639999
157	48	3	-0.89517	8.5059996	4.848	17.305
158	48	4	0.447585	8.9530001	4.0549998	16.945
159	48	4	0.447585	9.0740004	5.3280001	17.945999
160	49	3	-0.89517	18.070999	15.261001	25.736
161	49	4	0.447585	17.4	14.766001	26.249001
162	49	4	0.447585	18.986	15.021	26.002003
163	50	3	-0.89517	12.994001	24.556	3.0940003
164	50	4	0.447585	13.085001	23.587	2.9820001
165	50	4	0.447585	13.82	25.031002	2.8610001
166	51	3	-0.89517	17.641001	8.8330002	1.046
167	51	4	0.447585	17.856001	7.8780003	1.062
168	51	4	0.447585	18.257999	9.3570004	1.603
169	52	3	-0.89517	12.512001	9.3839998	22.198999
170	52	4	0.447585	11.587	9.1929998	22.459
171	52	4	0.447585	12.648	10.337	22.006001
172	53	3	-0.89517	6.698	5.2090001	14.6
173	53	4	0.447585	6.5050001	5.704	15.423001
174	53	4	0.447585	7.5640006	4.7490001	14.644001
175	54	3	-0.89517	15.668	23.703001	28.431
176	54	4	0.447585	15.478	24.1	29.305
177	54	4	0.447585	16.025	24.363001	27.798002
178	55	3	-0.89517	12.315001	24.66	8.0179996
179	55	4	0.447585	12.767	25.226	8.6780005
180	55	4	0.447585	12.874001	24.503	7.2259998
181	56	3	-0.89517	5.3590007	14.149	28.873001
182	56	4	0.447585	5.6129999	13.851	27.975002
183	56	4	0.447585	4.6020002	13.635	29.229
184	57	3	-0.89517	9.0410004	6.1000004	10.422
185	57	4	0.447585	9.1859999	7.0310001	10.690001
186	57	4	0.447585	9.1879997	5.9680004	9.4610004
187	58	3	-0.89517	2.7019999	19.833	20.042999
188	58	4	0.447585	3.1159999	19.913	20.927
189	58	4	0.447585	1.8710001	20.351999	19.979
190	59	3	-0.89517	0.91100001	0.89200008	21.524
191	59	4	0.447585	1.6610001	1.5180001	21.454
192	59	4	0.447585	0.85699999	0.48500001	22.416
193	60	3	-0.89517	18.086	22	8.4499998
194	60	4	0.447585	18.896	22.511999	8.651
195	60	4	0.447585	17.333	22.583	8.21
196	61	3	-0.89517	25.091	24.416	21.428001
197	61	4	0.447585	24.576	23.583	21.448
198	61	4	0.447585	26.056999	24.247999	21.374001
199	62	3	-0.89517	5.52	22.121	1.089
200	62	4	0.447585	6.3569999	21.613003	1.119
201	62	4	0.447585	4.756	21.586	1.393
202	63	3	-0.89517	28.861	12.792	28.461
203	63	4	0.447585	28.113001	12.178	28.615
204	63	4	0.447585	28.570002	13.73	28.459999
205	64	3	-0.89517	4.3730001	28.648003	13.208
206	64	4	0.447585	5.2890005	28.387001	13.437
207	64	4	0.447585	3.9300001	29.115999	13.949001
208	65	3	-0.89517	5.3260002	6.3709998	23.296001
209	65	4	0.447585	4.6950002	7.119	23.325003
210	65	4	0.447585	6.1820002	6.598	23.719999
211	66	3	-0.89517	21.812	15.234001	23.455
212	66	4	0.447585	21.202	15.133	24.215
213	66	4	0.447585	21.91	14.397	22.951
214	67	3	-0.89517	12.603001	19.365	28.641003
215	67	4	0.447585	12.354001	20.298002	28.806999
216	67	4	0.447585	12.943	18.927	29.452
217	68	3	-0.89517	7.0480003	2.724	5.125
218	68	4	0.447585	6.1100001	3.0050001	5.1350002
219	68	4	0.447585	7.6590004	3.4909999	5.0819998
220	69	3	-0.89517	1.8260001	20.525999	2.4990001
221	69	4	0.447585	1.344	20.382002	3.339
222	69	4	0.447585	2.6270003	19.962	2.4349999
223	70	3	-0.89517	17.622	10.016001	18.358
224	70	4	0.447585	17.141001	10.825	18.628
225	70	4	0.447585	18.055	9.5749998	19.120001
226	71	3	-0.89517	15.531	26.851999	1.951
227	71	4	0.447585	14.776	27.468002	1.858
228	71	4	0.447585	15.299	25.941999	1.665
229	72	3	-0.89517	20.742001	19.093	19.275999
230	72	4	0.447585	20.003002	19.614	19.653
231	72	4	0.447585	20.813999	18.207001	19.691999
232	73	3	-0.89517	15.927	21.961	6.1440001
233	73	4	0.447585	15.133	21.388	6.1570001
234	73	4	0.447585	15.692	22.914	6.1490006
235	74	3	-0.89517	25.253	23.773001	6.1459999
236	74	4	0.447585	25.572002	24.698999	6.1430001
237	74	4	0.447585	24.273003	23.723	6.145
238	75	3	-0.89517	25.452002	15.97	1.5369999
239	75	4	0.447585	25.150002	16.665001	2.1570001
240	75	4	0.447585	26.395	16.083	1.29
241	76	3	-0.89517	15.836	5.414	12.532
242	76	4	0.447585	15.771	5.4290004	13.509001
243	76	4	0.447585	16.485001	4.7470002	12.218
244	77	3	-0.89517	19.118999	25.98	16.888
245	77	4	0.447585	19.089001	25.018002	17.065001
246	77	4	0.447585	19.171	26.175001	15.927
247	78	3	-0.89517	21.011	19.587999	21.632002
248	78	4	0.447585	20.148001	19.386999	21.212999
249	78	4	0.447585	21.136999	19.089001	22.468002
250	79	3	-0.89517	23.475	1.7720001	0.78000003
251	79	4	0.447585	22.521	1.779	1
252	79	4	0.447585	23.795002	0.86800003	0.56999999
253	80	3	-0.89517	17.701	17.254	19.218
254	80	4	0.447585	18.562	17.083	19.652
255	80	4	0.447585	17.653999	18.159	18.841
256	81	3	-0.89517	2.428	13.785	10.654
257	81	4	0.447585	2.888	12.962	10.92
258	81	4	0.447585	2.823	14.579	11.077
259	82	3	-0.89517	28.844002	24.222	16.868
260	82	4	0.447585	29.43	23.688	17.443001
261	82	4	0.447585	28.898001	23.942001	15.929001
262	83	3	-0.89517	12.809	19.632999	8.3620005
263	83	4	0.447585	13.655	20.125999	8.3520002
264	83	4	0.447585	12.038001	20.225	8.224
265	84	3	-0.89517	28.156002	7.2309999	13.603
266	84	4	0.447585	29.070999	7.5749998	13.549
267	84	4	0.447585	27.903002	6.7340002	12.796
268	85	3	-0.89517	23.617001	17.061001	22.237
269	85	4	0.447585	23.694	17.700001	22.975002
270	85	4	0.447585	22.707003	17.034	21.870001
271	86	3	-0.89517	8.7390003	19.33	18.981001
272	86	4	0.447585	9.4499998	19.799999	19.464001
273	86	4	0.447585	7.8470001	19.628	19.261
274	87	3	-0.89517	13.686	18.318001	14.492001
275	87	4	0.447585	14.339	18.677999	13.857001
276	87	4	0.447585	13.979	17.461	14.872
277	88	3	-0.89517	10.556001	15.928	0.098000005
278	88	4	0.447585	10.849	15.117001	0.56099999
279	88	4	0.447585	10.258001	16.622	0.72600001
280	89	3	-0.89517	26.878002	4.2420001	15.588001
281	89	4	0.447585	26.115	4.2490001	16.202
282	89	4	0.447585	27.709999	4.5110002	16.035
283	90	3	-0.89517	27.042999	11.148	6.533
284	90	4	0.447585	26.789	11.179	7.4780006
285	90	4	0.447585	27.931999	11.536001	6.3800001
286	91	3	-0.89517	17.742001	22.429001	2.4100001
287	91	4	0.447585	17.709	23.402002	2.513
288	91	4	0.447585	18.471001	22.148001	1.8150001
289	92	3	-0.89517	15.112	22.667	19.365999
290	92	4	0.447585	15.033001	23.640001	19.288
291	92	4	0.447585	15.900001	22.405003	19.889999
292	93	3	-0.89517	11.181001	24.98	11.993
293	93	4	0.447585	11.311001	25.919001	12.24
294	93	4	0.447585	10.258001	24.684999	12.149
295	94	3	-0.89517	8.0830002	8.9399996	3.5730002
296	94	4	0.447585	9.0539999	9.0419998	3.4940002
297	94	4	0.447585	7.6399999	9.7939997	3.7709999
298	95	3	-0.89517	0.866	15.624	24.251001
299	95	4	0.447585	0.49600002	15.599001	25.158003
300	95	4	0.447585	1.653	16.209	24.193001
301	96	3	-0.89517	2.5569999	8.7220001	26.673
302	96	4	0.447585	1.6680001	8.3570004	26.485003
303	96	4	0.447585	2.911	9.2340002	25.914
304	97	3	-0.89517	26.944	15.994	2.7279999
305	97	4	0.447585	26.528	16.488001	3.464
306	97	4	0.447585	26.614	15.072001	2.6719999
307	98	3	-0.89517	12.293	23.847	26.526001
308	98	4	0.447585	12.924	23.103001	26.435001
309	98	4	0.447585	11.788	23.799	27.365999
310	99	3	-0.89517	16.636999	19.181999	18.118999
311	99	4	0.447585	17.193001	19.118999	17.315001
312	99	4	0.447585	17.108999	19.622999	18.858
313	100	3	-0.89517	17.166	24.184999	1.86
314	100	4	0.447585	16.547001	24.177	2.6199999
315	100	4	0.447585	16.865999	23.591999	1.137
316	101	3	-0.89517	18.542999	24.709	2.5539999
317	101	4	0.447585	19.384001	24.226	2.414
318	101	4	0.447585	18.410999	25.415001	1.885
319	102	3	-0.89517	13.064001	21.007999	6.0219998
320	102	4	0.447585	13.626001	20.226	5.842
321	102	4	0.447585	13.234	21.736	5.3850002
322	103	3	-0.89517	22.663	21.502001	20.916002
323	103	4	0.447585	23.597	21.793001	20.868999
324	103	4	0.447585	22.041	22.263	20.901001
325	104	3	-0.89517	23.281	2.0050001	19.861
326	104	4	0.447585	24.201	1.9060001	19.539
327	104	4	0.447585	22.73	1.222	19.639999
328	105	3	-0.89517	13.228001	14.503001	19.207001
329	105	4	0.447585	14.193	14.358	19.287001
330	105	4	0.447585	13.008001	15.455	19.106001
331	106	3	-0.89517	28.152	26.157	14.889001
332	106	4	0.447585	27.562	25.381001	14.984001
333	106	4	0.447585	27.649	26.978001	14.699
334	107	3	-0.89517	12.941	4.7069998	11.185001
335	107	4	0.447585	12.826	4.52	12.140001
336	107	4	0.447585	13.386001	3.9660001	10.719
337	108	3	-0.89517	1.2550001	13.141001	17.09
338	108	4	0.447585	1.7910001	12.322001	17.125
339	108	4	0.447585	0.29499999	12.954	17.181
340	109	3	-0.89517	5.6929998	22.836	5.8899999
341	109	4	0.447585	6.632	22.67	6.1120005
342	109	4	0.447585	5.2119999	22.005001	5.6849999
343	110	3	-0.89517	14.526	17.188	3.8510001
344	110	4	0.447585	13.614	16.837999	3.78
345	110	4	0.447585	15.141	16.533001	4.2470002
346	111	3	-0.89517	2.7079999	2.9449999	3.95
347	111	4	0.447585	3.404	3.562	3.6440001
348	111	4	0.447585	3.03	2.358	4.6680002
349	112	3	-0.89517	28.050001	11.871	18.365
350	112	4	0.447585	27.243999	11.731	17.827
351	112	4	0.447585	28.764	11.241001	18.125
352	113	3	-0.89517	13.836001	5.375	19.877001
353	113	4	0.447585	13.176001	5.9980006	19.507999
354	113	4	0.447585	14.292001	4.8639998	19.173
355	114	3	-0.89517	28.518	5.2960005	12.437
356	114	4	0.447585	28.681	6.1849999	12.060001
357	114	4	0.447585	27.660999	5.2529998	12.914
358	115	3	-0.89517	22.558001	2.7470002	24.966
359	115	4	0.447585	21.705	2.425	24.608
360	115	4	0.447585	22.454002	3.145	25.857
361	116	3	-0.89517	16.683001	3.1710002	8.5340004
362	116	4	0.447585	15.719	3.342	8.5649996
363	116	4	0.447585	16.895	2.233	8.7270002
364	117	3	-0.89517	11.85	7.5630002	21.283001
365	117	4	0.447585	11.518001	6.7210002	20.909002
366	117	4	0.447585	12.072	7.4770002	22.235001
367	118	3	-0.89517	19.552	7.4480004	11.939
368	118	4	0.447585	19.697001	7.5100002	12.905001
369	118	4	0.447585	19.673	6.5310001	11.608
370	119	3	-0.89517	22.243002	11.709	24.783001
371	119	4	0.447585	21.607	11.051001	25.130001
372	119	4	0.447585	22.419003	11.579	23.825001
373	120	3	-0.89517	8.3190002	13.271	23.773001
374	120	4	0.447585	8.4440002	12.503	24.368
375	120	4	0.447585	7.4530001	13.709001	23.919001
376	121	3	-0.89517	5.2950001	1.9859999	11.414
377	121	4	0.447585	6.0930004	1.706	10.92
378	121	4	0.447585	5.0760002	2.9289999	11.252001
379	122	3	-0.89517	17.545	1.822	22.940002
380	122	4	0.447585	18.474001	1.538	23.065002
381	122	4	0.447585	17.009001	1.689	23.750999
382	123	3	-0.89517	19.754	15.801	1.4130001
383	123	4	0.447585	20.410999	16.517	1.533
384	123	4	0.447585	18.957001	16.112	0.93100005
385	124	3	-0.89517	24.132002	17.969999	0.71200007
386	124	4	0.447585	24.271	17.000999	0.71499997
387	124	4	0.447585	23.393	18.233	0.121
388	125	3	-0.89517	12.566	10.54	24.273003
389	125	4	0.447585	12.152	11.342	23.893002
390	125	4	0.447585	12.675	9.8310003	23.601999
391	126	3	-0.89517	22.379999	16.638	19.629
392	126	4	0.447585	21.839001	15.864	19.370001
393	126	4	0.447585	23.186001	16.372999	20.123001
394	127	3	-0.89517	4.6360002	21.702999	19.155001
395	127	4	0.447585	4.1669998	21.552999	20.000999
396	127	4	0.447585	5.4540005	22.232	19.278
397	128	3	-0.89517	10.154	11.23	8.0889997
398	128	4	0.447585	10.341	12.191	8.1029997
399	128	4	0.447585	9.21	11.044001	7.8909998
400	129	3	-0.89517	9.1700001	18.308001	8.2110004
401	129	4	0.447585	8.9879999	18.882	8.9829998
402	129	4	0.447585	8.3719997	18.181999	7.6520004
403	130	3	-0.89517	8.6190004	11.181001	7.9640002
404	130	4	0.447585	9.54	11.483001	8.1059999
405	130	4	0.447585	7.9910002	11.933001	7.9080005
406	131	3	-0.89517	25.046001	17.924999	11.703
407	131	4	0.447585	25.125	16.952	11.781
408	131	4	0.447585	25.522001	18.391001	12.423
409	132	3	-0.89517	14.147	1.062	7.5340004
410	132	4	0.447585	14.320001	0.127	7.7670002
411	132	4	0.447585	14.872	1.6540002	7.8330002
412	133	3	-0.89517	28.078001	18.795	5.5489998
413	133	4	0.447585	28.232	19.416	6.29
414	133	4	0.447585	28.905001	18.344999	5.27
415	134	3	-0.89517	28.493999	15.943001	7.9159999
416	134	4	0.447585	29.171	15.842	8.6160002
417	134	4	0.447585	27.875999	16.681999	8.1059999
418	135	3	-0.89517	22.311001	4.7179999	25.629999
419	135	4	0.447585	21.618999	4.2090001	25.16
420	135	4	0.447585	22.427002	4.4099998	26.556
421	136	3	-0.89517	26.054001	3.902	3.835
422	136	4	0.447585	25.670002	3.2460001	3.2179999
423	136	4	0.447585	26.974001	3.671	4.0890002
424	137	3	-0.89517	0.56900001	17.191	14.144
425	137	4	0.447585	0.61199999	17.136	13.167
426	137	4	0.447585	1.015	16.427999	14.573001
427	138	3	-0.89517	13.141001	12.751001	17.834
428	138	4	0.447585	13.688001	12.067001	17.395
429	138	4	0.447585	12.947001	12.52	18.768999
430	139	3	-0.89517	0.88	15.819	7.8759999
431	139	4	0.447585	0.99900001	15.068001	7.2589998
432	139	4	0.447585	0.023	15.77	8.3529997
433	140	3	-0.89517	14.457001	15.136	23.973
434	140	4	0.447585	14.429001	14.532	24.743999
435	140	4	0.447585	15.098	15.868	24.104002
436	141	3	-0.89517	11.452	2.7620003	11.509
437	141	4	0.447585	11.265	1.8440001	11.224001
438	141	4	0.447585	12.394	3.003	11.375
439	142	3	-0.89517	9.4209995	14.319	24.253002
440	142	4	0.447585	9.2950001	13.374	24.028
441	142	4	0.447585	10.26	14.674	23.885
442	143	3	-0.89517	11.238001	7.6570005	23.039
443	143	4	0.447585	11.738	6.8150001	23.069
444	143	4	0.447585	11.314	8.1590004	23.879002
445	144	3	-0.89517	19.32	26.963001	1.659
446	144	4	0.447585	18.643999	27.07	2.3599999
447	144	4	0.447585	20.231001	26.978001	2.0250001
448	145	3	-0.89517	23.533001	27.749002	28.783001
449	145	4	0.447585	23.743	26.909	28.325003
450	145	4	0.447585	24.219	27.987001	29.444
451	146	3	-0.89517	22.221001	7.5640006	6.0380001
452	146	4	0.447585	23.041	7.8660007	5.5960007
453	146	4	0.447585	21.566999	8.2910004	6.132
454	147	3	-0.89517	22.339001	16.163	15.099
455	147	4	0.447585	22.166002	15.292	15.51
456	147	4	0.447585	23.160999	16.573999	15.442
457	148	3	-0.89517	27.044001	25.275	15.547
458	148	4	0.447585	27.723	24.752003	16.021
459	148	4	0.447585	26.632999	25.952999	16.125999
460	149	3	-0.89517	13.623	28.104	9.9580002
461	149	4	0.447585	14.040001	27.218	9.9569998
462	149	4	0.447585	12.839001	28.139	10.548
463	150	3	-0.89517	19.219	26.916	3.079
464	150	4	0.447585	19.832001	26.154001	3.1340001
465	150	4	0.447585	19.695	27.773001	3.1259999
466	151	3	-0.89517	10.058001	17.735001	11.457
467	151	4	0.447585	10.91	18.215	11.406001
468	151	4	0.447585	10.162	16.847	11.864
469	152	3	-0.89517	19.148001	10.002001	18.287001
470	152	4	0.447585	18.778	9.1370001	18.559
471	152	4	0.447585	19.468	10.522001	19.056
472	153	3	-0.89517	7.7049999	11.514	3.6230001
473	153	4	0.447585	7.0100002	11.148	3.0380001
474	153	4	0.447585	7.428	12.362001	4.0349998
475	154	3	-0.89517	9.5190001	19.580999	21.738003
476	154	4	0.447585	10.174	20.302	21.642
477	154	4	0.447585	9.8999996	18.705999	21.505001
478	155	3	-0.89517	18.141001	10.291	13.006
479	155	4	0.447585	17.216999	10.591001	13.130001
480	155	4	0.447585	18.728001	11.024	12.721
481	156	3	-0.89517	21.195	28.823002	10.813
482	156	4	0.447585	20.405003	28.409002	10.41
483	156	4	0.447585	21.865002	28.155001	11.076001
484	157	3	-0.89517	6.336	22.268	15.095
485	157	4	0.447585	5.4330006	21.955002	15.307001
486	157	4	0.447585	6.8090005	21.646999	14.499001
487	158	3	-0.89517	24.195002	22.587002	25.708
488	158	4	0.447585	24.076002	22.986	26.594
489	158	4	0.447585	24.921	21.927002	25.698002
490	159	3	-0.89517	20.813	3.1290002	8.8640003
491	159	4	0.447585	20.295	2.369	9.1999998
492	159	4	0.447585	21.034	3.0290003	7.9120007
493	160	3	-0.89517	26.566999	15.998	20.927999
494	160	4	0.447585	25.749001	15.532	20.66
495	160	4	0.447585	26.825001	16.687	20.278
496	161	3	-0.89517	15.700001	16.785	20.843
497	161	4	0.447585	15.157	17.268	21.499002
498	161	4	0.447585	15.639	17.187	19.948999
499	162	3	-0.89517	23.160999	3.9200001	28.675001
500	162	4	0.447585	23.294001	2.9590001	28.540001
501	162	4	0.447585	22.905003	4.375	27.844
502	163	3	-0.89517	4.6500001	27.540001	7.881
503	163	4	0.447585	4.9089999	27.864	8.7679996
504	163	4	0.447585	4.0599999	26.757	7.934
505	164	3	-0.89517	28.228001	28.193001	20.670002
506	164	4	0.447585	28.421	27.282	20.974003
507	164	4	0.447585	28.940001	28.546	20.093
508	165	3	-0.89517	8.1479998	4.507	29.219
509	165	4	0.447585	7.79	5.1529999	28.576
510	165	4	0.447585	8.8330002	3.9300001	28.816002
511	166	3	-0.89517	14.478001	28.468	15.992001
512	166	4	0.447585	14.087	27.719	16.487
513	166	4	0.447585	15.092	28.162001	15.289001
514	167	3	-0.89517	12.981	9.6619997	5.993
515	167	4	0.447585	13.004	8.8870001	6.592
516	167	4	0.447585	13.638	9.585	5.2680006
517	168	3	-0.89517	22.483999	24.712	25.374001
518	168	4	0.447585	22.556	24.009001	24.695
519	168	4	0.447585	22.849003	25.566002	25.056999
520	169	3	-0.89517	2.0150001	18.646	26.135002
521	169	4	0.447585	1.696	18.381001	27.021999
522	169	4	0.447585	1.383	19.246	25.681999
523	170	3	-0.89517	20.729	9.6450005	2.858
524	170	4	0.447585	20.845001	9.0930004	3.6590002
525	170	4	0.447585	21.157	9.2419996	2.0710001
526	171	3	-0.89517	16.261	26.297001	9.8380003
527	171	4	0.447585	15.312	26.455	9.6549997
528	171	4	0.447585	16.43	25.374001	10.128001
529	172	3	-0.89517	6.9300003	22.724001	2.7620003
530	172	4	0.447585	6.5479999	22.445	3.619
531	172	4	0.447585	7.8790002	22.482002	2.688
532	173	3	-0.89517	13.984001	4.0929999	12.661
533	173	4	0.447585	14.171	5.0220003	12.414
534	173	4	0.447585	13.469	3.6259999	11.968001
535	174	3	-0.89517	14.596	7.1820002	17.719999
536	174	4	0.447585	15.574001	7.1710005	17.747
537	174	4	0.447585	14.201001	6.7729998	18.52
538	175	3	-0.89517	27.857	10.961	10.644001
539	175	4	0.447585	27.323	10.300001	11.132001
540	175	4	0.447585	28.719002	10.592001	10.352
541	176	3	-0.89517	17.07	18.386	15.117001
542	176	4	0.447585	16.57	18.898001	15.786
543	176	4	0.447585	16.548	18.247999	14.297
544	177	3	-0.89517	5.869	20.625	0.64300001
545	177	4	0.447585	6.0279999	21.035999	1.5170001
546	177	4	0.447585	6.6560001	20.132999	0.32100004
547	178	3	-0.89517	4.2540002	10.982	12.759
548	178	4	0.447585	4.3309999	10.017	12.612
549	178	4	0.447585	3.5880003	11.196001	13.448
550	179	3	-0.89517	22.795	6.4990001	0.574
551	179	4	0.447585	22.033003	6.6919999	1.158
552	179	4	0.447585	23.055	7.2810001	0.040000003
553	180	3	-0.89517	27.025002	2.145	15.062
554	180	4	0.447585	27.304001	1.6070001	15.832
555	180	4	0.447585	26.120003	2.5079999	15.178001
556	181	3	-0.89517	20.381001	15.98	2.2019999
557	181	4	0.447585	21.066999	16.652	2.0090001
558	181	4	0.447585	20.77	15.09	2.3429999
559	182	3	-0.89517	20.77	28.014	16.805
560	182	4	0.447585	20.592001	27.052	16.761999
561	182	4	0.447585	21.659	28.238001	16.452999
562	183	3	-0.89517	22.716999	14.085001	2.4289999
563	183	4	0.447585	22.708	13.16	2.1059999
564	183	4	0.447585	22.059	14.643001	1.961
565	184	3	-0.89517	13.533	22.905003	2.6919999
566	184	4	0.447585	13.831	23.247002	1.824
567	184	4	0.447585	14.062	23.273001	3.4319999
568	185	3	-0.89517	6.3109999	13.917	19.416
569	185	4	0.447585	6.875	13.456	20.070999
570	185	4	0.447585	6.6199999	13.767	18.496
571	186	3	-0.89517	13.943	25.757	29.499001
572	186	4	0.447585	14.633001	25.158003	29.146999
573	186	4	0.447585	13.383001	26.131001	28.785
574	187	3	-0.89517	3.076	8.302	27.144001
575	187	4	0.447585	3.3180001	8.5410004	28.062
576	187	4	0.447585	3.835	8.3950005	26.528
577	188	3	-0.89517	18.745001	25.375002	25.615999
578	188	4	0.447585	19.104	26.207001	25.245001
579	188	4	0.447585	19.452999	24.721001	25.802
580	189	3	-0.89517	1.117	7.665	2.2509999
581	189	4	0.447585	0.16000001	7.6020002	2.0510001
582	189	4	0.447585	1.4859999	6.8060007	2.55
583	190	3	-0.89517	22.688999	14.494	1.9880002
584	190	4	0.447585	22.927	15.191001	1.342
585	190	4	0.447585	23.051003	13.618001	1.7309999
586	191	3	-0.89517	27.368	8.3009996	25.438002
587	191	4	0.447585	26.461	8.5080004	25.132
588	191	4	0.447585	27.459	8.4029999	26.41
589	192	3	-0.89517	2.6789999	4.2509999	5.2410002
590	192	4	0.447585	1.9400001	4.1669998	4.6040001
591	192	4	0.447585	3.2539999	3.4560001	5.2420001
592	193	3	-0.89517	3.7149999	12.654	16.121
593	193	4	0.447585	4.1230001	11.806001	15.851001
594	193	4	0.447585	2.9560003	12.895001	15.547
595	194	3	-0.89517	27.620001	27.062	3.507
596	194	4	0.447585	27.684	26.108999	3.2920001
597	194	4	0.447585	27.221001	27.212	4.3909998
598	195	3	-0.89517	2.184	12.737001	24.337002
599	195	4	0.447585	2.6210001	11.86	24.322002
600	195	4	0.447585	1.2180001	12.668	24.174999
601	196	3	-0.89517	26.962002	5.0290003	14.921
602	196	4	0.447585	27.769001	4.4770002	14.977001
603	196	4	0.447585	27.122	5.9460001	15.234001
604	197	3	-0.89517	0.68500006	25.292999	8.5450001
605	197	4	0.447585	0.301	24.686001	7.8800006
606	197	4	0.447585	0.0020000001	25.871	8.9499998
607	198	3	-0.89517	26.084999	9.316	7.5190001
608	198	4	0.447585	25.734001	8.5600004	7.0050001
609	198	4	0.447585	26.133001	10.135001	6.98
610	199	3	-0.89517	0.030000001	7.6060004	26.603001
611	199	4	0.447585	0.67799997	7.5920005	27.337999
612	199	4	0.447585	0.43799999	7.9039998	25.761002
613	200	3	-0.89517	8.309	14.341001	9.3959999
614	200	4	0.447585	7.8909998	13.464001	9.526
615	200	4	0.447585	9.1169996	14.282	8.8409996
616	201	3	-0.89517	2.454	5.0879998	22.139
617	201	4	0.447585	2.987	4.5929999	22.795
618	201	4	0.447585	1.682	5.5300002	22.555
619	202	3	-0.89517	17.893999	14.142	14.941
620	202	4	0.447585	17.472	14.011001	14.067
621	202	4	0.447585	18.539	13.431	15.147
622	203	3	-0.89517	7.6940002	18.281	2.211
623	203	4	0.447585	7.8940005	17.323999	2.1630001
624	203	4	0.447585	6.9029999	18.517	1.6799999
625	204	3	-0.89517	28.868999	9.8000002	10.567001
626	204	4	0.447585	29.457001	9.125	10.170001
627	204	4	0.447585	27.927	9.5279999	10.537
628	205	3	-0.89517	2.4130001	2.3889999	24.427002
629	205	4	0.447585	1.9579999	1.536	24.577
630	205	4	0.447585	1.8050001	3.1530001	24.532001
631	206	3	-0.89517	17.337	12.331	15.363001
632	206	4	0.447585	16.829	11.667	15.873001
633	206	4	0.447585	16.750999	12.988	14.93
634	207	3	-0.89517	4.0929999	21.186001	13.444
635	207	4	0.447585	4.7719998	21.674999	12.936
636	207	4	0.447585	3.4000001	20.808001	12.861
637	208	3	-0.89517	13.103	5.3720002	2.2360001
638	208	4	0.447585	12.582001	5.9560003	1.6470001
639	208	4	0.447585	14.062	5.5780001	2.2019999
640	209	3	-0.89517	25.386	2.4749999	13.15
641	209	4	0.447585	25.099001	2.497	14.087
642	209	4	0.447585	26.247002	2.928	13.02
643	210	3	-0.89517	7.6060004	15.154	17.802999
644	210	4	0.447585	7.9320002	14.959001	18.705999
645	210	4	0.447585	6.9440002	15.879001	17.802
646	211	3	-0.89517	9.9809999	23.956001	13.476
647	211	4	0.447585	9.0769997	23.797001	13.818001
648	211	4	0.447585	10.631	23.325003	13.855
649	212	3	-0.89517	18.671	1.243	17.041
650	212	4	0.447585	18.181	2.027	17.362
651	212	4	0.447585	18.497	1.0650001	16.091999
652	213	3	-0.89517	23.273001	25.088001	27.650002
653	213	4	0.447585	24.021	25.42	27.113001
654	213	4	0.447585	23.525999	24.308002	28.188999
655	214	3	-0.89517	13.384	22.268999	17.768
656	214	4	0.447585	12.694	22.874001	17.427
657	214	4	0.447585	13.156	21.327	17.611
658	215	3	-0.89517	6.2779999	13.398	14.197001